 Entering Link 1 = C:\Program Files\G09W\l1.exe PID=      6556.
  
 Copyright (c) 1988,1990,1992,1993,1995,1998,2003,2009,2015,
            Gaussian, Inc.  All Rights Reserved.
  
 This is part of the Gaussian(R) 09 program.  It is based on
 the Gaussian(R) 03 system (copyright 2003, Gaussian, Inc.),
 the Gaussian(R) 98 system (copyright 1998, Gaussian, Inc.),
 the Gaussian(R) 94 system (copyright 1995, Gaussian, Inc.),
 the Gaussian 92(TM) system (copyright 1992, Gaussian, Inc.),
 the Gaussian 90(TM) system (copyright 1990, Gaussian, Inc.),
 the Gaussian 88(TM) system (copyright 1988, Gaussian, Inc.),
 the Gaussian 86(TM) system (copyright 1986, Carnegie Mellon
 University), and the Gaussian 82(TM) system (copyright 1983,
 Carnegie Mellon University). Gaussian is a federally registered
 trademark of Gaussian, Inc.
  
 This software contains proprietary and confidential information,
 including trade secrets, belonging to Gaussian, Inc.
  
 This software is provided under written license and may be
 used, copied, transmitted, or stored only in accord with that
 written license.
  
 The following legend is applicable only to US Government
 contracts under FAR:
  
                    RESTRICTED RIGHTS LEGEND
  
 Use, reproduction and disclosure by the US Government is
 subject to restrictions as set forth in subparagraphs (a)
 and (c) of the Commercial Computer Software - Restricted
 Rights clause in FAR 52.227-19.
  
 Gaussian, Inc.
 340 Quinnipiac St., Bldg. 40, Wallingford CT 06492
  
  
 ---------------------------------------------------------------
 Warning -- This program may not be used in any manner that
 competes with the business of Gaussian, Inc. or will provide
 assistance to any competitor of Gaussian, Inc.  The licensee
 of this program is prohibited from giving any competitor of
 Gaussian, Inc. access to this program.  By using this program,
 the user acknowledges that Gaussian, Inc. is engaged in the
 business of creating and licensing software in the field of
 computational chemistry and represents and warrants to the
 licensee that it is not a competitor of Gaussian, Inc. and that
 it will not use this program in any manner prohibited above.
 ---------------------------------------------------------------
  

 Cite this work as:
 Gaussian 09, Revision E.01,
 M. J. Frisch, G. W. Trucks, H. B. Schlegel, G. E. Scuseria, 
 M. A. Robb, J. R. Cheeseman, G. Scalmani, V. Barone, B. Mennucci, 
 G. A. Petersson, H. Nakatsuji, M. Caricato, X. Li, H. P. Hratchian, 
 A. F. Izmaylov, J. Bloino, G. Zheng, J. L. Sonnenberg, M. Hada, 
 M. Ehara, K. Toyota, R. Fukuda, J. Hasegawa, M. Ishida, T. Nakajima, 
 Y. Honda, O. Kitao, H. Nakai, T. Vreven, J. A. Montgomery, Jr., 
 J. E. Peralta, F. Ogliaro, M. Bearpark, J. J. Heyd, E. Brothers, 
 K. N. Kudin, V. N. Staroverov, T. Keith, R. Kobayashi, J. Normand, 
 K. Raghavachari, A. Rendell, J. C. Burant, S. S. Iyengar, J. Tomasi, 
 M. Cossi, N. Rega, J. M. Millam, M. Klene, J. E. Knox, J. B. Cross, 
 V. Bakken, C. Adamo, J. Jaramillo, R. Gomperts, R. E. Stratmann, 
 O. Yazyev, A. J. Austin, R. Cammi, C. Pomelli, J. W. Ochterski, 
 R. L. Martin, K. Morokuma, V. G. Zakrzewski, G. A. Voth, 
 P. Salvador, J. J. Dannenberg, S. Dapprich, A. D. Daniels, 
 O. Farkas, J. B. Foresman, J. V. Ortiz, J. Cioslowski, 
 and D. J. Fox, Gaussian, Inc., Wallingford CT, 2013.
 
 ******************************************
 Gaussian 09:  EM64W-G09RevE.01 30-Nov-2015
                12-Jan-2020 
 ******************************************
 %nprocshared=12
 Will use up to   12 processors via shared memory.
 %mem=2GB
 %chk=D:\Gaussian\C60\C60 opt.chk
 --------------------------------
 # opt m062x/6-31+g(d) symm=loose
 --------------------------------
 1/14=-1,18=20,19=15,26=3,38=1/1,3;
 2/9=110,12=2,17=4,18=3,40=1/2;
 3/5=1,6=6,7=11,11=2,16=1,25=1,30=1,71=1,74=-55/1,2,3;
 4//1;
 5/5=2,38=5/2;
 6/7=2,8=2,9=2,10=2,28=1/1;
 7//1,2,3,16;
 1/14=-1,18=20,19=15,26=3/3(2);
 2/9=110/2;
 99//99;
 2/9=110/2;
 3/5=1,6=6,7=11,11=2,16=1,25=1,30=1,71=1,74=-55/1,2,3;
 4/5=5,16=3,69=1/1;
 5/5=2,38=5/2;
 7//1,2,3,16;
 1/14=-1,18=20,19=15,26=3/3(-5);
 2/9=110/2;
 6/7=2,8=2,9=2,10=2,19=2,28=1/1;
 99/9=1/99;
 -------
 C60 opt
 -------
 Symbolic Z-matrix:
 Charge =  0 Multiplicity = 1
 C                    -1.1843   -0.3848    3.33173 
 C                    -0.73194   1.00743   3.33173 
 C                    -1.42426   1.96033   2.60378 
 C                    -2.60856   1.57552   1.83417 
 C                    -3.03644   0.25865   1.83417 
 C                    -2.3045   -0.74878   2.60378 
 C                     0.       -1.24525   3.33173 
 C                     1.1843   -0.3848    3.33173 
 C                     0.73194   1.00743   3.33173 
 C                     1.42426   1.96033   2.60378 
 C                    -0.69232   2.96775   1.83417 
 C                    -2.60856   2.34513   0.58893 
 C                    -3.03644   1.75621  -0.58892 
 C                    -3.48881   0.36397  -0.58892 
 C                    -3.4888   -0.36397   0.58893 
 C                    -3.03644  -1.75621   0.58893 
 C                    -2.3045   -1.99403   1.83417 
 C                    -1.1843   -2.8079    1.83417 
 C                    0.        -2.4231    2.60378 
 C                     2.3045   -0.74878   2.60378 
 C                     2.3045   -1.99403   1.83417 
 C                     1.1843   -2.8079    1.83417 
 C                     0.73194  -3.43052   0.58893 
 C                    -0.73194  -3.43052   0.58893 
 C                    -1.42426  -3.20558  -0.58892 
 C                    -2.60856  -2.34513  -0.58892 
 C                    -2.60856  -1.57552  -1.83417 
 C                    -3.03644  -0.25865  -1.83417 
 C                    -1.42426   3.20558   0.58893 
 C                     0.        1.24525  -3.33173 
 C                     0.        2.4231   -2.60378 
 C                     1.1843    2.8079   -1.83417 
 C                     2.30451   1.99403  -1.83417 
 C                     2.30451   0.74878  -2.60378 
 C                     0.73194  -1.00743  -3.33173 
 C                    -0.73194  -1.00743  -3.33173 
 C                    -1.1843    0.3848   -3.33173 
 C                    -2.3045    0.74878  -2.60378 
 C                    -2.3045    1.99403  -1.83417 
 C                    -1.1843    2.8079   -1.83417 
 C                     0.73194   3.43053  -0.58892 
 C                     1.42426   3.20558   0.58893 
 C                     2.60856   2.34513   0.58893 
 C                     3.03644   1.7562   -0.58892 
 C                     3.4888    0.36398  -0.58892 
 C                     3.03644  -0.25865  -1.83417 
 C                     2.60856  -1.57553  -1.83417 
 C                     1.42426  -1.96033  -2.60378 
 C                    -1.42426  -1.96033  -2.60378 
 C                    -0.69232  -2.96776  -1.83417 
 C                     0.69232  -2.96775  -1.83417 
 C                     1.42426  -3.20558  -0.58892 
 C                     2.60856  -2.34513  -0.58892 
 C                     3.03644  -1.7562    0.58893 
 C                     3.4888   -0.36398   0.58893 
 C                     3.03644   0.25865   1.83417 
 C                     2.60856   1.57552   1.83417 
 C                    -0.73194   3.43052  -0.58892 
 C                     0.69232   2.96775   1.83417 
 C                     1.1843    0.3848   -3.33173 
 

 GradGradGradGradGradGradGradGradGradGradGradGradGradGradGradGradGradGrad
 Berny optimization.
 Initialization pass.
                           ----------------------------
                           !    Initial Parameters    !
                           ! (Angstroms and Degrees)  !
 --------------------------                            --------------------------
 ! Name  Definition              Value          Derivative Info.                !
 --------------------------------------------------------------------------------
 ! R1    R(1,2)                  1.4639         estimate D2E/DX2                !
 ! R2    R(1,6)                  1.3846         estimate D2E/DX2                !
 ! R3    R(1,7)                  1.4639         estimate D2E/DX2                !
 ! R4    R(2,3)                  1.3846         estimate D2E/DX2                !
 ! R5    R(2,9)                  1.4639         estimate D2E/DX2                !
 ! R6    R(3,4)                  1.4639         estimate D2E/DX2                !
 ! R7    R(3,11)                 1.4639         estimate D2E/DX2                !
 ! R8    R(4,5)                  1.3846         estimate D2E/DX2                !
 ! R9    R(4,12)                 1.4639         estimate D2E/DX2                !
 ! R10   R(5,6)                  1.4639         estimate D2E/DX2                !
 ! R11   R(5,15)                 1.4639         estimate D2E/DX2                !
 ! R12   R(6,17)                 1.4639         estimate D2E/DX2                !
 ! R13   R(7,8)                  1.4639         estimate D2E/DX2                !
 ! R14   R(7,19)                 1.3846         estimate D2E/DX2                !
 ! R15   R(8,9)                  1.4639         estimate D2E/DX2                !
 ! R16   R(8,20)                 1.3846         estimate D2E/DX2                !
 ! R17   R(9,10)                 1.3846         estimate D2E/DX2                !
 ! R18   R(10,57)                1.4639         estimate D2E/DX2                !
 ! R19   R(10,59)                1.4639         estimate D2E/DX2                !
 ! R20   R(11,29)                1.4639         estimate D2E/DX2                !
 ! R21   R(11,59)                1.3846         estimate D2E/DX2                !
 ! R22   R(12,13)                1.3846         estimate D2E/DX2                !
 ! R23   R(12,29)                1.4639         estimate D2E/DX2                !
 ! R24   R(13,14)                1.4639         estimate D2E/DX2                !
 ! R25   R(13,39)                1.4639         estimate D2E/DX2                !
 ! R26   R(14,15)                1.3846         estimate D2E/DX2                !
 ! R27   R(14,28)                1.4639         estimate D2E/DX2                !
 ! R28   R(15,16)                1.4639         estimate D2E/DX2                !
 ! R29   R(16,17)                1.4639         estimate D2E/DX2                !
 ! R30   R(16,26)                1.3846         estimate D2E/DX2                !
 ! R31   R(17,18)                1.3846         estimate D2E/DX2                !
 ! R32   R(18,19)                1.4639         estimate D2E/DX2                !
 ! R33   R(18,24)                1.4639         estimate D2E/DX2                !
 ! R34   R(19,22)                1.4639         estimate D2E/DX2                !
 ! R35   R(20,21)                1.4639         estimate D2E/DX2                !
 ! R36   R(20,56)                1.4639         estimate D2E/DX2                !
 ! R37   R(21,22)                1.3846         estimate D2E/DX2                !
 ! R38   R(21,54)                1.4639         estimate D2E/DX2                !
 ! R39   R(22,23)                1.4639         estimate D2E/DX2                !
 ! R40   R(23,24)                1.4639         estimate D2E/DX2                !
 ! R41   R(23,52)                1.3846         estimate D2E/DX2                !
 ! R42   R(24,25)                1.3846         estimate D2E/DX2                !
 ! R43   R(25,26)                1.4639         estimate D2E/DX2                !
 ! R44   R(25,50)                1.4639         estimate D2E/DX2                !
 ! R45   R(26,27)                1.4639         estimate D2E/DX2                !
 ! R46   R(27,28)                1.3846         estimate D2E/DX2                !
 ! R47   R(27,49)                1.4639         estimate D2E/DX2                !
 ! R48   R(28,38)                1.4639         estimate D2E/DX2                !
 ! R49   R(29,58)                1.3846         estimate D2E/DX2                !
 ! R50   R(30,31)                1.3846         estimate D2E/DX2                !
 ! R51   R(30,37)                1.4639         estimate D2E/DX2                !
 ! R52   R(30,60)                1.4639         estimate D2E/DX2                !
 ! R53   R(31,32)                1.4639         estimate D2E/DX2                !
 ! R54   R(31,40)                1.4639         estimate D2E/DX2                !
 ! R55   R(32,33)                1.3846         estimate D2E/DX2                !
 ! R56   R(32,41)                1.4639         estimate D2E/DX2                !
 ! R57   R(33,34)                1.4639         estimate D2E/DX2                !
 ! R58   R(33,44)                1.4639         estimate D2E/DX2                !
 ! R59   R(34,46)                1.4639         estimate D2E/DX2                !
 ! R60   R(34,60)                1.3846         estimate D2E/DX2                !
 ! R61   R(35,36)                1.4639         estimate D2E/DX2                !
 ! R62   R(35,48)                1.3846         estimate D2E/DX2                !
 ! R63   R(35,60)                1.4639         estimate D2E/DX2                !
 ! R64   R(36,37)                1.4639         estimate D2E/DX2                !
 ! R65   R(36,49)                1.3846         estimate D2E/DX2                !
 ! R66   R(37,38)                1.3846         estimate D2E/DX2                !
 ! R67   R(38,39)                1.4639         estimate D2E/DX2                !
 ! R68   R(39,40)                1.3846         estimate D2E/DX2                !
 ! R69   R(40,58)                1.4639         estimate D2E/DX2                !
 ! R70   R(41,42)                1.3846         estimate D2E/DX2                !
 ! R71   R(41,58)                1.4639         estimate D2E/DX2                !
 ! R72   R(42,43)                1.4639         estimate D2E/DX2                !
 ! R73   R(42,59)                1.4639         estimate D2E/DX2                !
 ! R74   R(43,44)                1.3846         estimate D2E/DX2                !
 ! R75   R(43,57)                1.4639         estimate D2E/DX2                !
 ! R76   R(44,45)                1.4639         estimate D2E/DX2                !
 ! R77   R(45,46)                1.4639         estimate D2E/DX2                !
 ! R78   R(45,55)                1.3846         estimate D2E/DX2                !
 ! R79   R(46,47)                1.3846         estimate D2E/DX2                !
 ! R80   R(47,48)                1.4639         estimate D2E/DX2                !
 ! R81   R(47,53)                1.4639         estimate D2E/DX2                !
 ! R82   R(48,51)                1.4639         estimate D2E/DX2                !
 ! R83   R(49,50)                1.4639         estimate D2E/DX2                !
 ! R84   R(50,51)                1.3846         estimate D2E/DX2                !
 ! R85   R(51,52)                1.4639         estimate D2E/DX2                !
 ! R86   R(52,53)                1.4639         estimate D2E/DX2                !
 ! R87   R(53,54)                1.3846         estimate D2E/DX2                !
 ! R88   R(54,55)                1.4639         estimate D2E/DX2                !
 ! R89   R(55,56)                1.4639         estimate D2E/DX2                !
 ! R90   R(56,57)                1.3846         estimate D2E/DX2                !
 ! A1    A(2,1,6)              120.0            estimate D2E/DX2                !
 ! A2    A(2,1,7)              108.0            estimate D2E/DX2                !
 ! A3    A(6,1,7)              120.0            estimate D2E/DX2                !
 ! A4    A(1,2,3)              120.0            estimate D2E/DX2                !
 ! A5    A(1,2,9)              108.0            estimate D2E/DX2                !
 ! A6    A(3,2,9)              120.0            estimate D2E/DX2                !
 ! A7    A(2,3,4)              120.0            estimate D2E/DX2                !
 ! A8    A(2,3,11)             120.0            estimate D2E/DX2                !
 ! A9    A(4,3,11)             108.0            estimate D2E/DX2                !
 ! A10   A(3,4,5)              120.0            estimate D2E/DX2                !
 ! A11   A(3,4,12)             107.9999         estimate D2E/DX2                !
 ! A12   A(5,4,12)             120.0001         estimate D2E/DX2                !
 ! A13   A(4,5,6)              120.0            estimate D2E/DX2                !
 ! A14   A(4,5,15)             120.0            estimate D2E/DX2                !
 ! A15   A(6,5,15)             108.0            estimate D2E/DX2                !
 ! A16   A(1,6,5)              120.0            estimate D2E/DX2                !
 ! A17   A(1,6,17)             120.0            estimate D2E/DX2                !
 ! A18   A(5,6,17)             108.0001         estimate D2E/DX2                !
 ! A19   A(1,7,8)              108.0            estimate D2E/DX2                !
 ! A20   A(1,7,19)             120.0            estimate D2E/DX2                !
 ! A21   A(8,7,19)             120.0            estimate D2E/DX2                !
 ! A22   A(7,8,9)              108.0            estimate D2E/DX2                !
 ! A23   A(7,8,20)             120.0            estimate D2E/DX2                !
 ! A24   A(9,8,20)             120.0            estimate D2E/DX2                !
 ! A25   A(2,9,8)              108.0            estimate D2E/DX2                !
 ! A26   A(2,9,10)             120.0            estimate D2E/DX2                !
 ! A27   A(8,9,10)             120.0            estimate D2E/DX2                !
 ! A28   A(9,10,57)            120.0            estimate D2E/DX2                !
 ! A29   A(9,10,59)            120.0001         estimate D2E/DX2                !
 ! A30   A(57,10,59)           108.0            estimate D2E/DX2                !
 ! A31   A(3,11,29)            108.0            estimate D2E/DX2                !
 ! A32   A(3,11,59)            119.9999         estimate D2E/DX2                !
 ! A33   A(29,11,59)           120.0            estimate D2E/DX2                !
 ! A34   A(4,12,13)            119.9998         estimate D2E/DX2                !
 ! A35   A(4,12,29)            108.0001         estimate D2E/DX2                !
 ! A36   A(13,12,29)           120.0002         estimate D2E/DX2                !
 ! A37   A(12,13,14)           120.0001         estimate D2E/DX2                !
 ! A38   A(12,13,39)           119.9998         estimate D2E/DX2                !
 ! A39   A(14,13,39)           108.0001         estimate D2E/DX2                !
 ! A40   A(13,14,15)           119.9999         estimate D2E/DX2                !
 ! A41   A(13,14,28)           108.0            estimate D2E/DX2                !
 ! A42   A(15,14,28)           120.0001         estimate D2E/DX2                !
 ! A43   A(5,15,14)            120.0001         estimate D2E/DX2                !
 ! A44   A(5,15,16)            107.9999         estimate D2E/DX2                !
 ! A45   A(14,15,16)           120.0            estimate D2E/DX2                !
 ! A46   A(15,16,17)           107.9999         estimate D2E/DX2                !
 ! A47   A(15,16,26)           120.0            estimate D2E/DX2                !
 ! A48   A(17,16,26)           120.0001         estimate D2E/DX2                !
 ! A49   A(6,17,16)            108.0            estimate D2E/DX2                !
 ! A50   A(6,17,18)            120.0            estimate D2E/DX2                !
 ! A51   A(16,17,18)           120.0            estimate D2E/DX2                !
 ! A52   A(17,18,19)           120.0            estimate D2E/DX2                !
 ! A53   A(17,18,24)           120.0001         estimate D2E/DX2                !
 ! A54   A(19,18,24)           107.9999         estimate D2E/DX2                !
 ! A55   A(7,19,18)            120.0            estimate D2E/DX2                !
 ! A56   A(7,19,22)            120.0            estimate D2E/DX2                !
 ! A57   A(18,19,22)           108.0            estimate D2E/DX2                !
 ! A58   A(8,20,21)            120.0001         estimate D2E/DX2                !
 ! A59   A(8,20,56)            120.0            estimate D2E/DX2                !
 ! A60   A(21,20,56)           108.0            estimate D2E/DX2                !
 ! A61   A(20,21,22)           120.0            estimate D2E/DX2                !
 ! A62   A(20,21,54)           108.0001         estimate D2E/DX2                !
 ! A63   A(22,21,54)           120.0            estimate D2E/DX2                !
 ! A64   A(19,22,21)           119.9999         estimate D2E/DX2                !
 ! A65   A(19,22,23)           108.0            estimate D2E/DX2                !
 ! A66   A(21,22,23)           120.0            estimate D2E/DX2                !
 ! A67   A(22,23,24)           108.0            estimate D2E/DX2                !
 ! A68   A(22,23,52)           120.0001         estimate D2E/DX2                !
 ! A69   A(24,23,52)           119.9999         estimate D2E/DX2                !
 ! A70   A(18,24,23)           108.0001         estimate D2E/DX2                !
 ! A71   A(18,24,25)           119.9998         estimate D2E/DX2                !
 ! A72   A(23,24,25)           120.0002         estimate D2E/DX2                !
 ! A73   A(24,25,26)           120.0001         estimate D2E/DX2                !
 ! A74   A(24,25,50)           119.9998         estimate D2E/DX2                !
 ! A75   A(26,25,50)           108.0001         estimate D2E/DX2                !
 ! A76   A(16,26,25)           119.9999         estimate D2E/DX2                !
 ! A77   A(16,26,27)           120.0001         estimate D2E/DX2                !
 ! A78   A(25,26,27)           108.0            estimate D2E/DX2                !
 ! A79   A(26,27,28)           119.9999         estimate D2E/DX2                !
 ! A80   A(26,27,49)           108.0            estimate D2E/DX2                !
 ! A81   A(28,27,49)           120.0001         estimate D2E/DX2                !
 ! A82   A(14,28,27)           119.9999         estimate D2E/DX2                !
 ! A83   A(14,28,38)           108.0            estimate D2E/DX2                !
 ! A84   A(27,28,38)           120.0001         estimate D2E/DX2                !
 ! A85   A(11,29,12)           108.0            estimate D2E/DX2                !
 ! A86   A(11,29,58)           120.0001         estimate D2E/DX2                !
 ! A87   A(12,29,58)           119.9999         estimate D2E/DX2                !
 ! A88   A(31,30,37)           120.0001         estimate D2E/DX2                !
 ! A89   A(31,30,60)           119.9999         estimate D2E/DX2                !
 ! A90   A(37,30,60)           108.0            estimate D2E/DX2                !
 ! A91   A(30,31,32)           120.0001         estimate D2E/DX2                !
 ! A92   A(30,31,40)           119.9998         estimate D2E/DX2                !
 ! A93   A(32,31,40)           108.0001         estimate D2E/DX2                !
 ! A94   A(31,32,33)           119.9999         estimate D2E/DX2                !
 ! A95   A(31,32,41)           108.0            estimate D2E/DX2                !
 ! A96   A(33,32,41)           120.0001         estimate D2E/DX2                !
 ! A97   A(32,33,34)           120.0001         estimate D2E/DX2                !
 ! A98   A(32,33,44)           119.9999         estimate D2E/DX2                !
 ! A99   A(34,33,44)           108.0            estimate D2E/DX2                !
 ! A100  A(33,34,46)           108.0            estimate D2E/DX2                !
 ! A101  A(33,34,60)           120.0            estimate D2E/DX2                !
 ! A102  A(46,34,60)           120.0            estimate D2E/DX2                !
 ! A103  A(36,35,48)           120.0001         estimate D2E/DX2                !
 ! A104  A(36,35,60)           108.0            estimate D2E/DX2                !
 ! A105  A(48,35,60)           119.9999         estimate D2E/DX2                !
 ! A106  A(35,36,37)           108.0            estimate D2E/DX2                !
 ! A107  A(35,36,49)           119.9999         estimate D2E/DX2                !
 ! A108  A(37,36,49)           120.0            estimate D2E/DX2                !
 ! A109  A(30,37,36)           108.0            estimate D2E/DX2                !
 ! A110  A(30,37,38)           119.9999         estimate D2E/DX2                !
 ! A111  A(36,37,38)           120.0            estimate D2E/DX2                !
 ! A112  A(28,38,37)           119.9999         estimate D2E/DX2                !
 ! A113  A(28,38,39)           108.0            estimate D2E/DX2                !
 ! A114  A(37,38,39)           120.0001         estimate D2E/DX2                !
 ! A115  A(13,39,38)           108.0            estimate D2E/DX2                !
 ! A116  A(13,39,40)           120.0002         estimate D2E/DX2                !
 ! A117  A(38,39,40)           119.9997         estimate D2E/DX2                !
 ! A118  A(31,40,39)           120.0003         estimate D2E/DX2                !
 ! A119  A(31,40,58)           107.9999         estimate D2E/DX2                !
 ! A120  A(39,40,58)           119.9997         estimate D2E/DX2                !
 ! A121  A(32,41,42)           119.9999         estimate D2E/DX2                !
 ! A122  A(32,41,58)           108.0            estimate D2E/DX2                !
 ! A123  A(42,41,58)           120.0002         estimate D2E/DX2                !
 ! A124  A(41,42,43)           120.0001         estimate D2E/DX2                !
 ! A125  A(41,42,59)           119.9999         estimate D2E/DX2                !
 ! A126  A(43,42,59)           108.0            estimate D2E/DX2                !
 ! A127  A(42,43,44)           120.0001         estimate D2E/DX2                !
 ! A128  A(42,43,57)           107.9999         estimate D2E/DX2                !
 ! A129  A(44,43,57)           120.0            estimate D2E/DX2                !
 ! A130  A(33,44,43)           120.0            estimate D2E/DX2                !
 ! A131  A(33,44,45)           108.0            estimate D2E/DX2                !
 ! A132  A(43,44,45)           120.0            estimate D2E/DX2                !
 ! A133  A(44,45,46)           108.0            estimate D2E/DX2                !
 ! A134  A(44,45,55)           120.0            estimate D2E/DX2                !
 ! A135  A(46,45,55)           120.0            estimate D2E/DX2                !
 ! A136  A(34,46,45)           108.0            estimate D2E/DX2                !
 ! A137  A(34,46,47)           120.0001         estimate D2E/DX2                !
 ! A138  A(45,46,47)           119.9999         estimate D2E/DX2                !
 ! A139  A(46,47,48)           119.9999         estimate D2E/DX2                !
 ! A140  A(46,47,53)           120.0001         estimate D2E/DX2                !
 ! A141  A(48,47,53)           108.0            estimate D2E/DX2                !
 ! A142  A(35,48,47)           120.0001         estimate D2E/DX2                !
 ! A143  A(35,48,51)           119.9998         estimate D2E/DX2                !
 ! A144  A(47,48,51)           108.0001         estimate D2E/DX2                !
 ! A145  A(27,49,36)           119.9999         estimate D2E/DX2                !
 ! A146  A(27,49,50)           108.0            estimate D2E/DX2                !
 ! A147  A(36,49,50)           120.0001         estimate D2E/DX2                !
 ! A148  A(25,50,49)           108.0            estimate D2E/DX2                !
 ! A149  A(25,50,51)           120.0002         estimate D2E/DX2                !
 ! A150  A(49,50,51)           119.9997         estimate D2E/DX2                !
 ! A151  A(48,51,50)           120.0003         estimate D2E/DX2                !
 ! A152  A(48,51,52)           107.9999         estimate D2E/DX2                !
 ! A153  A(50,51,52)           119.9997         estimate D2E/DX2                !
 ! A154  A(23,52,51)           120.0001         estimate D2E/DX2                !
 ! A155  A(23,52,53)           119.9998         estimate D2E/DX2                !
 ! A156  A(51,52,53)           108.0            estimate D2E/DX2                !
 ! A157  A(47,53,52)           108.0            estimate D2E/DX2                !
 ! A158  A(47,53,54)           119.9999         estimate D2E/DX2                !
 ! A159  A(52,53,54)           120.0002         estimate D2E/DX2                !
 ! A160  A(21,54,53)           119.9999         estimate D2E/DX2                !
 ! A161  A(21,54,55)           108.0            estimate D2E/DX2                !
 ! A162  A(53,54,55)           120.0001         estimate D2E/DX2                !
 ! A163  A(45,55,54)           120.0001         estimate D2E/DX2                !
 ! A164  A(45,55,56)           120.0            estimate D2E/DX2                !
 ! A165  A(54,55,56)           107.9999         estimate D2E/DX2                !
 ! A166  A(20,56,55)           108.0            estimate D2E/DX2                !
 ! A167  A(20,56,57)           120.0            estimate D2E/DX2                !
 ! A168  A(55,56,57)           120.0            estimate D2E/DX2                !
 ! A169  A(10,57,43)           108.0            estimate D2E/DX2                !
 ! A170  A(10,57,56)           120.0            estimate D2E/DX2                !
 ! A171  A(43,57,56)           120.0            estimate D2E/DX2                !
 ! A172  A(29,58,40)           120.0001         estimate D2E/DX2                !
 ! A173  A(29,58,41)           119.9998         estimate D2E/DX2                !
 ! A174  A(40,58,41)           108.0            estimate D2E/DX2                !
 ! A175  A(10,59,11)           120.0            estimate D2E/DX2                !
 ! A176  A(10,59,42)           108.0001         estimate D2E/DX2                !
 ! A177  A(11,59,42)           120.0            estimate D2E/DX2                !
 ! A178  A(30,60,34)           120.0            estimate D2E/DX2                !
 ! A179  A(30,60,35)           108.0            estimate D2E/DX2                !
 ! A180  A(34,60,35)           120.0            estimate D2E/DX2                !
 ! D1    D(6,1,2,3)              0.0            estimate D2E/DX2                !
 ! D2    D(6,1,2,9)           -142.6226         estimate D2E/DX2                !
 ! D3    D(7,1,2,3)            142.6226         estimate D2E/DX2                !
 ! D4    D(7,1,2,9)              0.0            estimate D2E/DX2                !
 ! D5    D(2,1,6,5)              0.0            estimate D2E/DX2                !
 ! D6    D(2,1,6,17)           138.1897         estimate D2E/DX2                !
 ! D7    D(7,1,6,5)           -138.1897         estimate D2E/DX2                !
 ! D8    D(7,1,6,17)             0.0            estimate D2E/DX2                !
 ! D9    D(2,1,7,8)              0.0            estimate D2E/DX2                !
 ! D10   D(2,1,7,19)          -142.6226         estimate D2E/DX2                !
 ! D11   D(6,1,7,8)            142.6226         estimate D2E/DX2                !
 ! D12   D(6,1,7,19)             0.0            estimate D2E/DX2                !
 ! D13   D(1,2,3,4)              0.0            estimate D2E/DX2                !
 ! D14   D(1,2,3,11)          -138.1897         estimate D2E/DX2                !
 ! D15   D(9,2,3,4)            138.1897         estimate D2E/DX2                !
 ! D16   D(9,2,3,11)             0.0            estimate D2E/DX2                !
 ! D17   D(1,2,9,8)              0.0            estimate D2E/DX2                !
 ! D18   D(1,2,9,10)           142.6227         estimate D2E/DX2                !
 ! D19   D(3,2,9,8)           -142.6226         estimate D2E/DX2                !
 ! D20   D(3,2,9,10)             0.0            estimate D2E/DX2                !
 ! D21   D(2,3,4,5)              0.0            estimate D2E/DX2                !
 ! D22   D(2,3,4,12)          -142.6227         estimate D2E/DX2                !
 ! D23   D(11,3,4,5)           142.6226         estimate D2E/DX2                !
 ! D24   D(11,3,4,12)            0.0            estimate D2E/DX2                !
 ! D25   D(2,3,11,29)          142.6226         estimate D2E/DX2                !
 ! D26   D(2,3,11,59)            0.0            estimate D2E/DX2                !
 ! D27   D(4,3,11,29)            0.0            estimate D2E/DX2                !
 ! D28   D(4,3,11,59)         -142.6226         estimate D2E/DX2                !
 ! D29   D(3,4,5,6)              0.0            estimate D2E/DX2                !
 ! D30   D(3,4,5,15)          -138.1897         estimate D2E/DX2                !
 ! D31   D(12,4,5,6)           138.1896         estimate D2E/DX2                !
 ! D32   D(12,4,5,15)           -0.0001         estimate D2E/DX2                !
 ! D33   D(3,4,12,13)          142.6228         estimate D2E/DX2                !
 ! D34   D(3,4,12,29)            0.0            estimate D2E/DX2                !
 ! D35   D(5,4,12,13)            0.0001         estimate D2E/DX2                !
 ! D36   D(5,4,12,29)         -142.6226         estimate D2E/DX2                !
 ! D37   D(4,5,6,1)              0.0            estimate D2E/DX2                !
 ! D38   D(4,5,6,17)          -142.6226         estimate D2E/DX2                !
 ! D39   D(15,5,6,1)           142.6227         estimate D2E/DX2                !
 ! D40   D(15,5,6,17)            0.0            estimate D2E/DX2                !
 ! D41   D(4,5,15,14)            0.0            estimate D2E/DX2                !
 ! D42   D(4,5,15,16)          142.6227         estimate D2E/DX2                !
 ! D43   D(6,5,15,14)         -142.6226         estimate D2E/DX2                !
 ! D44   D(6,5,15,16)            0.0            estimate D2E/DX2                !
 ! D45   D(1,6,17,16)         -142.6227         estimate D2E/DX2                !
 ! D46   D(1,6,17,18)            0.0            estimate D2E/DX2                !
 ! D47   D(5,6,17,16)            0.0            estimate D2E/DX2                !
 ! D48   D(5,6,17,18)          142.6226         estimate D2E/DX2                !
 ! D49   D(1,7,8,9)              0.0            estimate D2E/DX2                !
 ! D50   D(1,7,8,20)          -142.6227         estimate D2E/DX2                !
 ! D51   D(19,7,8,9)           142.6226         estimate D2E/DX2                !
 ! D52   D(19,7,8,20)            0.0            estimate D2E/DX2                !
 ! D53   D(1,7,19,18)            0.0            estimate D2E/DX2                !
 ! D54   D(1,7,19,22)          138.1897         estimate D2E/DX2                !
 ! D55   D(8,7,19,18)         -138.1897         estimate D2E/DX2                !
 ! D56   D(8,7,19,22)            0.0            estimate D2E/DX2                !
 ! D57   D(7,8,9,2)              0.0            estimate D2E/DX2                !
 ! D58   D(7,8,9,10)          -142.6226         estimate D2E/DX2                !
 ! D59   D(20,8,9,2)           142.6226         estimate D2E/DX2                !
 ! D60   D(20,8,9,10)            0.0            estimate D2E/DX2                !
 ! D61   D(7,8,20,21)            0.0            estimate D2E/DX2                !
 ! D62   D(7,8,20,56)          138.1897         estimate D2E/DX2                !
 ! D63   D(9,8,20,21)         -138.1897         estimate D2E/DX2                !
 ! D64   D(9,8,20,56)            0.0            estimate D2E/DX2                !
 ! D65   D(2,9,10,57)         -138.1897         estimate D2E/DX2                !
 ! D66   D(2,9,10,59)            0.0            estimate D2E/DX2                !
 ! D67   D(8,9,10,57)            0.0            estimate D2E/DX2                !
 ! D68   D(8,9,10,59)          138.1897         estimate D2E/DX2                !
 ! D69   D(9,10,57,43)         142.6226         estimate D2E/DX2                !
 ! D70   D(9,10,57,56)           0.0            estimate D2E/DX2                !
 ! D71   D(59,10,57,43)          0.0            estimate D2E/DX2                !
 ! D72   D(59,10,57,56)       -142.6227         estimate D2E/DX2                !
 ! D73   D(9,10,59,11)           0.0            estimate D2E/DX2                !
 ! D74   D(9,10,59,42)        -142.6226         estimate D2E/DX2                !
 ! D75   D(57,10,59,11)        142.6227         estimate D2E/DX2                !
 ! D76   D(57,10,59,42)          0.0            estimate D2E/DX2                !
 ! D77   D(3,11,29,12)           0.0            estimate D2E/DX2                !
 ! D78   D(3,11,29,58)        -142.6226         estimate D2E/DX2                !
 ! D79   D(59,11,29,12)        142.6226         estimate D2E/DX2                !
 ! D80   D(59,11,29,58)          0.0            estimate D2E/DX2                !
 ! D81   D(3,11,59,10)           0.0            estimate D2E/DX2                !
 ! D82   D(3,11,59,42)         138.1897         estimate D2E/DX2                !
 ! D83   D(29,11,59,10)       -138.1897         estimate D2E/DX2                !
 ! D84   D(29,11,59,42)          0.0            estimate D2E/DX2                !
 ! D85   D(4,12,13,14)          -0.0001         estimate D2E/DX2                !
 ! D86   D(4,12,13,39)        -138.1898         estimate D2E/DX2                !
 ! D87   D(29,12,13,14)        138.1896         estimate D2E/DX2                !
 ! D88   D(29,12,13,39)         -0.0001         estimate D2E/DX2                !
 ! D89   D(4,12,29,11)           0.0            estimate D2E/DX2                !
 ! D90   D(4,12,29,58)         142.6226         estimate D2E/DX2                !
 ! D91   D(13,12,29,11)       -142.6226         estimate D2E/DX2                !
 ! D92   D(13,12,29,58)          0.0001         estimate D2E/DX2                !
 ! D93   D(12,13,14,15)          0.0001         estimate D2E/DX2                !
 ! D94   D(12,13,14,28)       -142.6226         estimate D2E/DX2                !
 ! D95   D(39,13,14,15)        142.6227         estimate D2E/DX2                !
 ! D96   D(39,13,14,28)          0.0            estimate D2E/DX2                !
 ! D97   D(12,13,39,38)        142.6227         estimate D2E/DX2                !
 ! D98   D(12,13,39,40)          0.0002         estimate D2E/DX2                !
 ! D99   D(14,13,39,38)          0.0            estimate D2E/DX2                !
 ! D100  D(14,13,39,40)       -142.6225         estimate D2E/DX2                !
 ! D101  D(13,14,15,5)          -0.0001         estimate D2E/DX2                !
 ! D102  D(13,14,15,16)       -138.1897         estimate D2E/DX2                !
 ! D103  D(28,14,15,5)         138.1896         estimate D2E/DX2                !
 ! D104  D(28,14,15,16)         -0.0001         estimate D2E/DX2                !
 ! D105  D(13,14,28,27)        142.6227         estimate D2E/DX2                !
 ! D106  D(13,14,28,38)          0.0            estimate D2E/DX2                !
 ! D107  D(15,14,28,27)          0.0001         estimate D2E/DX2                !
 ! D108  D(15,14,28,38)       -142.6226         estimate D2E/DX2                !
 ! D109  D(5,15,16,17)           0.0            estimate D2E/DX2                !
 ! D110  D(5,15,16,26)        -142.6227         estimate D2E/DX2                !
 ! D111  D(14,15,16,17)        142.6227         estimate D2E/DX2                !
 ! D112  D(14,15,16,26)          0.0            estimate D2E/DX2                !
 ! D113  D(15,16,17,6)           0.0            estimate D2E/DX2                !
 ! D114  D(15,16,17,18)       -142.6227         estimate D2E/DX2                !
 ! D115  D(26,16,17,6)         142.6226         estimate D2E/DX2                !
 ! D116  D(26,16,17,18)          0.0            estimate D2E/DX2                !
 ! D117  D(15,16,26,25)        138.1897         estimate D2E/DX2                !
 ! D118  D(15,16,26,27)          0.0001         estimate D2E/DX2                !
 ! D119  D(17,16,26,25)          0.0001         estimate D2E/DX2                !
 ! D120  D(17,16,26,27)       -138.1896         estimate D2E/DX2                !
 ! D121  D(6,17,18,19)           0.0            estimate D2E/DX2                !
 ! D122  D(6,17,18,24)        -138.1896         estimate D2E/DX2                !
 ! D123  D(16,17,18,19)        138.1897         estimate D2E/DX2                !
 ! D124  D(16,17,18,24)          0.0001         estimate D2E/DX2                !
 ! D125  D(17,18,19,7)           0.0            estimate D2E/DX2                !
 ! D126  D(17,18,19,22)       -142.6226         estimate D2E/DX2                !
 ! D127  D(24,18,19,7)         142.6227         estimate D2E/DX2                !
 ! D128  D(24,18,19,22)          0.0            estimate D2E/DX2                !
 ! D129  D(17,18,24,23)        142.6226         estimate D2E/DX2                !
 ! D130  D(17,18,24,25)         -0.0001         estimate D2E/DX2                !
 ! D131  D(19,18,24,23)          0.0            estimate D2E/DX2                !
 ! D132  D(19,18,24,25)       -142.6228         estimate D2E/DX2                !
 ! D133  D(7,19,22,21)           0.0            estimate D2E/DX2                !
 ! D134  D(7,19,22,23)        -142.6226         estimate D2E/DX2                !
 ! D135  D(18,19,22,21)        142.6226         estimate D2E/DX2                !
 ! D136  D(18,19,22,23)          0.0            estimate D2E/DX2                !
 ! D137  D(8,20,21,22)           0.0            estimate D2E/DX2                !
 ! D138  D(8,20,21,54)         142.6226         estimate D2E/DX2                !
 ! D139  D(56,20,21,22)       -142.6227         estimate D2E/DX2                !
 ! D140  D(56,20,21,54)          0.0            estimate D2E/DX2                !
 ! D141  D(8,20,56,55)        -142.6226         estimate D2E/DX2                !
 ! D142  D(8,20,56,57)           0.0            estimate D2E/DX2                !
 ! D143  D(21,20,56,55)          0.0            estimate D2E/DX2                !
 ! D144  D(21,20,56,57)        142.6227         estimate D2E/DX2                !
 ! D145  D(20,21,22,19)          0.0            estimate D2E/DX2                !
 ! D146  D(20,21,22,23)        138.1897         estimate D2E/DX2                !
 ! D147  D(54,21,22,19)       -138.1897         estimate D2E/DX2                !
 ! D148  D(54,21,22,23)          0.0            estimate D2E/DX2                !
 ! D149  D(20,21,54,53)       -142.6227         estimate D2E/DX2                !
 ! D150  D(20,21,54,55)          0.0            estimate D2E/DX2                !
 ! D151  D(22,21,54,53)          0.0            estimate D2E/DX2                !
 ! D152  D(22,21,54,55)        142.6226         estimate D2E/DX2                !
 ! D153  D(19,22,23,24)          0.0            estimate D2E/DX2                !
 ! D154  D(19,22,23,52)        142.6226         estimate D2E/DX2                !
 ! D155  D(21,22,23,24)       -142.6226         estimate D2E/DX2                !
 ! D156  D(21,22,23,52)          0.0            estimate D2E/DX2                !
 ! D157  D(22,23,24,18)          0.0            estimate D2E/DX2                !
 ! D158  D(22,23,24,25)        142.6226         estimate D2E/DX2                !
 ! D159  D(52,23,24,18)       -142.6226         estimate D2E/DX2                !
 ! D160  D(52,23,24,25)         -0.0001         estimate D2E/DX2                !
 ! D161  D(22,23,52,51)       -138.1896         estimate D2E/DX2                !
 ! D162  D(22,23,52,53)          0.0001         estimate D2E/DX2                !
 ! D163  D(24,23,52,51)          0.0001         estimate D2E/DX2                !
 ! D164  D(24,23,52,53)        138.1898         estimate D2E/DX2                !
 ! D165  D(18,24,25,26)          0.0001         estimate D2E/DX2                !
 ! D166  D(18,24,25,50)        138.1898         estimate D2E/DX2                !
 ! D167  D(23,24,25,26)       -138.1896         estimate D2E/DX2                !
 ! D168  D(23,24,25,50)          0.0001         estimate D2E/DX2                !
 ! D169  D(24,25,26,16)         -0.0001         estimate D2E/DX2                !
 ! D170  D(24,25,26,27)        142.6226         estimate D2E/DX2                !
 ! D171  D(50,25,26,16)       -142.6227         estimate D2E/DX2                !
 ! D172  D(50,25,26,27)          0.0            estimate D2E/DX2                !
 ! D173  D(24,25,50,49)       -142.6227         estimate D2E/DX2                !
 ! D174  D(24,25,50,51)         -0.0002         estimate D2E/DX2                !
 ! D175  D(26,25,50,49)          0.0            estimate D2E/DX2                !
 ! D176  D(26,25,50,51)        142.6225         estimate D2E/DX2                !
 ! D177  D(16,26,27,28)         -0.0001         estimate D2E/DX2                !
 ! D178  D(16,26,27,49)        142.6226         estimate D2E/DX2                !
 ! D179  D(25,26,27,28)       -142.6227         estimate D2E/DX2                !
 ! D180  D(25,26,27,49)          0.0            estimate D2E/DX2                !
 ! D181  D(26,27,28,14)          0.0            estimate D2E/DX2                !
 ! D182  D(26,27,28,38)        138.1897         estimate D2E/DX2                !
 ! D183  D(49,27,28,14)       -138.1897         estimate D2E/DX2                !
 ! D184  D(49,27,28,38)          0.0            estimate D2E/DX2                !
 ! D185  D(26,27,49,36)       -142.6226         estimate D2E/DX2                !
 ! D186  D(26,27,49,50)          0.0            estimate D2E/DX2                !
 ! D187  D(28,27,49,36)          0.0            estimate D2E/DX2                !
 ! D188  D(28,27,49,50)        142.6226         estimate D2E/DX2                !
 ! D189  D(14,28,38,37)        142.6226         estimate D2E/DX2                !
 ! D190  D(14,28,38,39)          0.0            estimate D2E/DX2                !
 ! D191  D(27,28,38,37)          0.0            estimate D2E/DX2                !
 ! D192  D(27,28,38,39)       -142.6226         estimate D2E/DX2                !
 ! D193  D(11,29,58,40)        138.1896         estimate D2E/DX2                !
 ! D194  D(11,29,58,41)         -0.0001         estimate D2E/DX2                !
 ! D195  D(12,29,58,40)         -0.0001         estimate D2E/DX2                !
 ! D196  D(12,29,58,41)       -138.1898         estimate D2E/DX2                !
 ! D197  D(37,30,31,32)        138.1896         estimate D2E/DX2                !
 ! D198  D(37,30,31,40)         -0.0001         estimate D2E/DX2                !
 ! D199  D(60,30,31,32)         -0.0001         estimate D2E/DX2                !
 ! D200  D(60,30,31,40)       -138.1898         estimate D2E/DX2                !
 ! D201  D(31,30,37,36)       -142.6226         estimate D2E/DX2                !
 ! D202  D(31,30,37,38)          0.0001         estimate D2E/DX2                !
 ! D203  D(60,30,37,36)          0.0            estimate D2E/DX2                !
 ! D204  D(60,30,37,38)        142.6226         estimate D2E/DX2                !
 ! D205  D(31,30,60,34)          0.0            estimate D2E/DX2                !
 ! D206  D(31,30,60,35)        142.6226         estimate D2E/DX2                !
 ! D207  D(37,30,60,34)       -142.6226         estimate D2E/DX2                !
 ! D208  D(37,30,60,35)          0.0            estimate D2E/DX2                !
 ! D209  D(30,31,32,33)          0.0001         estimate D2E/DX2                !
 ! D210  D(30,31,32,41)       -142.6225         estimate D2E/DX2                !
 ! D211  D(40,31,32,33)        142.6226         estimate D2E/DX2                !
 ! D212  D(40,31,32,41)          0.0            estimate D2E/DX2                !
 ! D213  D(30,31,40,39)          0.0002         estimate D2E/DX2                !
 ! D214  D(30,31,40,58)        142.6227         estimate D2E/DX2                !
 ! D215  D(32,31,40,39)       -142.6225         estimate D2E/DX2                !
 ! D216  D(32,31,40,58)          0.0            estimate D2E/DX2                !
 ! D217  D(31,32,33,34)         -0.0001         estimate D2E/DX2                !
 ! D218  D(31,32,33,44)       -138.1898         estimate D2E/DX2                !
 ! D219  D(41,32,33,34)        138.1896         estimate D2E/DX2                !
 ! D220  D(41,32,33,44)         -0.0001         estimate D2E/DX2                !
 ! D221  D(31,32,41,42)        142.6227         estimate D2E/DX2                !
 ! D222  D(31,32,41,58)          0.0            estimate D2E/DX2                !
 ! D223  D(33,32,41,42)          0.0001         estimate D2E/DX2                !
 ! D224  D(33,32,41,58)       -142.6226         estimate D2E/DX2                !
 ! D225  D(32,33,34,46)       -142.6226         estimate D2E/DX2                !
 ! D226  D(32,33,34,60)          0.0            estimate D2E/DX2                !
 ! D227  D(44,33,34,46)          0.0            estimate D2E/DX2                !
 ! D228  D(44,33,34,60)        142.6226         estimate D2E/DX2                !
 ! D229  D(32,33,44,43)          0.0            estimate D2E/DX2                !
 ! D230  D(32,33,44,45)        142.6227         estimate D2E/DX2                !
 ! D231  D(34,33,44,43)       -142.6227         estimate D2E/DX2                !
 ! D232  D(34,33,44,45)          0.0            estimate D2E/DX2                !
 ! D233  D(33,34,46,45)          0.0            estimate D2E/DX2                !
 ! D234  D(33,34,46,47)        142.6226         estimate D2E/DX2                !
 ! D235  D(60,34,46,45)       -142.6226         estimate D2E/DX2                !
 ! D236  D(60,34,46,47)          0.0            estimate D2E/DX2                !
 ! D237  D(33,34,60,30)          0.0            estimate D2E/DX2                !
 ! D238  D(33,34,60,35)       -138.1897         estimate D2E/DX2                !
 ! D239  D(46,34,60,30)        138.1897         estimate D2E/DX2                !
 ! D240  D(46,34,60,35)          0.0            estimate D2E/DX2                !
 ! D241  D(48,35,36,37)        142.6226         estimate D2E/DX2                !
 ! D242  D(48,35,36,49)         -0.0001         estimate D2E/DX2                !
 ! D243  D(60,35,36,37)          0.0            estimate D2E/DX2                !
 ! D244  D(60,35,36,49)       -142.6226         estimate D2E/DX2                !
 ! D245  D(36,35,48,47)       -138.1896         estimate D2E/DX2                !
 ! D246  D(36,35,48,51)          0.0001         estimate D2E/DX2                !
 ! D247  D(60,35,48,47)          0.0001         estimate D2E/DX2                !
 ! D248  D(60,35,48,51)        138.1898         estimate D2E/DX2                !
 ! D249  D(36,35,60,30)          0.0            estimate D2E/DX2                !
 ! D250  D(36,35,60,34)        142.6226         estimate D2E/DX2                !
 ! D251  D(48,35,60,30)       -142.6226         estimate D2E/DX2                !
 ! D252  D(48,35,60,34)          0.0            estimate D2E/DX2                !
 ! D253  D(35,36,37,30)          0.0            estimate D2E/DX2                !
 ! D254  D(35,36,37,38)       -142.6226         estimate D2E/DX2                !
 ! D255  D(49,36,37,30)        142.6226         estimate D2E/DX2                !
 ! D256  D(49,36,37,38)          0.0            estimate D2E/DX2                !
 ! D257  D(35,36,49,27)        138.1897         estimate D2E/DX2                !
 ! D258  D(35,36,49,50)          0.0001         estimate D2E/DX2                !
 ! D259  D(37,36,49,27)          0.0            estimate D2E/DX2                !
 ! D260  D(37,36,49,50)       -138.1896         estimate D2E/DX2                !
 ! D261  D(30,37,38,28)       -138.1897         estimate D2E/DX2                !
 ! D262  D(30,37,38,39)         -0.0001         estimate D2E/DX2                !
 ! D263  D(36,37,38,28)          0.0            estimate D2E/DX2                !
 ! D264  D(36,37,38,39)        138.1896         estimate D2E/DX2                !
 ! D265  D(28,38,39,13)          0.0            estimate D2E/DX2                !
 ! D266  D(28,38,39,40)        142.6227         estimate D2E/DX2                !
 ! D267  D(37,38,39,13)       -142.6225         estimate D2E/DX2                !
 ! D268  D(37,38,39,40)          0.0002         estimate D2E/DX2                !
 ! D269  D(13,39,40,31)        138.1895         estimate D2E/DX2                !
 ! D270  D(13,39,40,58)         -0.0002         estimate D2E/DX2                !
 ! D271  D(38,39,40,31)         -0.0002         estimate D2E/DX2                !
 ! D272  D(38,39,40,58)       -138.1899         estimate D2E/DX2                !
 ! D273  D(31,40,58,29)       -142.6226         estimate D2E/DX2                !
 ! D274  D(31,40,58,41)          0.0            estimate D2E/DX2                !
 ! D275  D(39,40,58,29)          0.0002         estimate D2E/DX2                !
 ! D276  D(39,40,58,41)        142.6227         estimate D2E/DX2                !
 ! D277  D(32,41,42,43)         -0.0001         estimate D2E/DX2                !
 ! D278  D(32,41,42,59)       -138.1898         estimate D2E/DX2                !
 ! D279  D(58,41,42,43)        138.1896         estimate D2E/DX2                !
 ! D280  D(58,41,42,59)         -0.0001         estimate D2E/DX2                !
 ! D281  D(32,41,58,29)        142.6227         estimate D2E/DX2                !
 ! D282  D(32,41,58,40)          0.0            estimate D2E/DX2                !
 ! D283  D(42,41,58,29)          0.0002         estimate D2E/DX2                !
 ! D284  D(42,41,58,40)       -142.6225         estimate D2E/DX2                !
 ! D285  D(41,42,43,44)          0.0            estimate D2E/DX2                !
 ! D286  D(41,42,43,57)       -142.6226         estimate D2E/DX2                !
 ! D287  D(59,42,43,44)        142.6226         estimate D2E/DX2                !
 ! D288  D(59,42,43,57)          0.0            estimate D2E/DX2                !
 ! D289  D(41,42,59,10)        142.6227         estimate D2E/DX2                !
 ! D290  D(41,42,59,11)          0.0            estimate D2E/DX2                !
 ! D291  D(43,42,59,10)          0.0            estimate D2E/DX2                !
 ! D292  D(43,42,59,11)       -142.6226         estimate D2E/DX2                !
 ! D293  D(42,43,44,33)          0.0001         estimate D2E/DX2                !
 ! D294  D(42,43,44,45)       -138.1897         estimate D2E/DX2                !
 ! D295  D(57,43,44,33)        138.1897         estimate D2E/DX2                !
 ! D296  D(57,43,44,45)          0.0            estimate D2E/DX2                !
 ! D297  D(42,43,57,10)          0.0            estimate D2E/DX2                !
 ! D298  D(42,43,57,56)        142.6227         estimate D2E/DX2                !
 ! D299  D(44,43,57,10)       -142.6226         estimate D2E/DX2                !
 ! D300  D(44,43,57,56)          0.0            estimate D2E/DX2                !
 ! D301  D(33,44,45,46)          0.0            estimate D2E/DX2                !
 ! D302  D(33,44,45,55)       -142.6227         estimate D2E/DX2                !
 ! D303  D(43,44,45,46)        142.6227         estimate D2E/DX2                !
 ! D304  D(43,44,45,55)          0.0            estimate D2E/DX2                !
 ! D305  D(44,45,46,34)          0.0            estimate D2E/DX2                !
 ! D306  D(44,45,46,47)       -142.6227         estimate D2E/DX2                !
 ! D307  D(55,45,46,34)        142.6227         estimate D2E/DX2                !
 ! D308  D(55,45,46,47)          0.0            estimate D2E/DX2                !
 ! D309  D(44,45,55,54)        138.1897         estimate D2E/DX2                !
 ! D310  D(44,45,55,56)          0.0            estimate D2E/DX2                !
 ! D311  D(46,45,55,54)         -0.0001         estimate D2E/DX2                !
 ! D312  D(46,45,55,56)       -138.1897         estimate D2E/DX2                !
 ! D313  D(34,46,47,48)          0.0001         estimate D2E/DX2                !
 ! D314  D(34,46,47,53)       -138.1896         estimate D2E/DX2                !
 ! D315  D(45,46,47,48)        138.1898         estimate D2E/DX2                !
 ! D316  D(45,46,47,53)          0.0001         estimate D2E/DX2                !
 ! D317  D(46,47,48,35)         -0.0001         estimate D2E/DX2                !
 ! D318  D(46,47,48,51)       -142.6226         estimate D2E/DX2                !
 ! D319  D(53,47,48,35)        142.6225         estimate D2E/DX2                !
 ! D320  D(53,47,48,51)          0.0            estimate D2E/DX2                !
 ! D321  D(46,47,53,52)        142.6226         estimate D2E/DX2                !
 ! D322  D(46,47,53,54)         -0.0001         estimate D2E/DX2                !
 ! D323  D(48,47,53,52)          0.0            estimate D2E/DX2                !
 ! D324  D(48,47,53,54)       -142.6227         estimate D2E/DX2                !
 ! D325  D(35,48,51,50)         -0.0002         estimate D2E/DX2                !
 ! D326  D(35,48,51,52)       -142.6227         estimate D2E/DX2                !
 ! D327  D(47,48,51,50)        142.6225         estimate D2E/DX2                !
 ! D328  D(47,48,51,52)          0.0            estimate D2E/DX2                !
 ! D329  D(27,49,50,25)          0.0            estimate D2E/DX2                !
 ! D330  D(27,49,50,51)       -142.6227         estimate D2E/DX2                !
 ! D331  D(36,49,50,25)        142.6225         estimate D2E/DX2                !
 ! D332  D(36,49,50,51)         -0.0002         estimate D2E/DX2                !
 ! D333  D(25,50,51,48)       -138.1895         estimate D2E/DX2                !
 ! D334  D(25,50,51,52)          0.0002         estimate D2E/DX2                !
 ! D335  D(49,50,51,48)          0.0002         estimate D2E/DX2                !
 ! D336  D(49,50,51,52)        138.1899         estimate D2E/DX2                !
 ! D337  D(48,51,52,23)        142.6226         estimate D2E/DX2                !
 ! D338  D(48,51,52,53)          0.0            estimate D2E/DX2                !
 ! D339  D(50,51,52,23)         -0.0002         estimate D2E/DX2                !
 ! D340  D(50,51,52,53)       -142.6227         estimate D2E/DX2                !
 ! D341  D(23,52,53,47)       -142.6227         estimate D2E/DX2                !
 ! D342  D(23,52,53,54)         -0.0002         estimate D2E/DX2                !
 ! D343  D(51,52,53,47)          0.0            estimate D2E/DX2                !
 ! D344  D(51,52,53,54)        142.6225         estimate D2E/DX2                !
 ! D345  D(47,53,54,21)        138.1898         estimate D2E/DX2                !
 ! D346  D(47,53,54,55)          0.0001         estimate D2E/DX2                !
 ! D347  D(52,53,54,21)          0.0001         estimate D2E/DX2                !
 ! D348  D(52,53,54,55)       -138.1896         estimate D2E/DX2                !
 ! D349  D(21,54,55,45)       -142.6226         estimate D2E/DX2                !
 ! D350  D(21,54,55,56)          0.0            estimate D2E/DX2                !
 ! D351  D(53,54,55,45)          0.0            estimate D2E/DX2                !
 ! D352  D(53,54,55,56)        142.6226         estimate D2E/DX2                !
 ! D353  D(45,55,56,20)        142.6226         estimate D2E/DX2                !
 ! D354  D(45,55,56,57)          0.0            estimate D2E/DX2                !
 ! D355  D(54,55,56,20)          0.0            estimate D2E/DX2                !
 ! D356  D(54,55,56,57)       -142.6227         estimate D2E/DX2                !
 ! D357  D(20,56,57,10)          0.0            estimate D2E/DX2                !
 ! D358  D(20,56,57,43)       -138.1897         estimate D2E/DX2                !
 ! D359  D(55,56,57,10)        138.1897         estimate D2E/DX2                !
 ! D360  D(55,56,57,43)          0.0            estimate D2E/DX2                !
 --------------------------------------------------------------------------------
 Trust Radius=3.00D-01 FncErr=1.00D-07 GrdErr=1.00D-06
 Number of steps in this run=    360 maximum allowed number of steps=    360.
 GradGradGradGradGradGradGradGradGradGradGradGradGradGradGradGradGradGrad

 Stoichiometry    C60
 Framework group  IH[15SG(C4)]
 Deg. of freedom     2
 Full point group                 IH      NOp 120
 Largest Abelian subgroup         C2H     NOp   4
 Largest concise Abelian subgroup C2H     NOp   4
                         Standard orientation:                         
 ---------------------------------------------------------------------
 Center     Atomic      Atomic             Coordinates (Angstroms)
 Number     Number       Type             X           Y           Z
 ---------------------------------------------------------------------
      1          6           0        0.731939   -1.007427    3.331728
      2          6           0       -0.731939   -1.007427    3.331728
      3          6           0       -1.424260   -1.960326    2.603778
      4          6           0       -0.692322   -2.967753    1.834172
      5          6           0        0.692322   -2.967753    1.834172
      6          6           0        1.424260   -1.960326    2.603778
      7          6           0        1.184302    0.384803    3.331728
      8          6           0        0.000000    1.245249    3.331728
      9          6           0       -1.184302    0.384803    3.331728
     10          6           0       -2.304502    0.748778    2.603778
     11          6           0       -2.608562   -1.575523    1.834172
     12          6           0       -1.424260   -3.205575    0.588924
     13          6           0       -0.731939   -3.430524   -0.588924
     14          6           0        0.731939   -3.430524   -0.588924
     15          6           0        1.424260   -3.205575    0.588924
     16          6           0        2.608562   -2.345129    0.588924
     17          6           0        2.608562   -1.575523    1.834172
     18          6           0        3.036440   -0.258649    1.834172
     19          6           0        2.304502    0.748778    2.603778
     20          6           0        0.000000    2.423096    2.603778
     21          6           0        1.184302    2.807899    1.834172
     22          6           0        2.304502    1.994026    1.834172
     23          6           0        3.036440    1.756205    0.588924
     24          6           0        3.488803    0.363975    0.588924
     25          6           0        3.488803   -0.363975   -0.588924
     26          6           0        3.036440   -1.756205   -0.588924
     27          6           0        2.304502   -1.994026   -1.834172
     28          6           0        1.184302   -2.807899   -1.834172
     29          6           0       -2.608562   -2.345129    0.588924
     30          6           0       -1.184302   -0.384803   -3.331728
     31          6           0       -2.304502   -0.748778   -2.603778
     32          6           0       -3.036440    0.258649   -1.834172
     33          6           0       -2.608562    1.575523   -1.834172
     34          6           0       -1.424260    1.960326   -2.603778
     35          6           0        0.731939    1.007427   -3.331728
     36          6           0        1.184302   -0.384803   -3.331728
     37          6           0        0.000000   -1.245249   -3.331728
     38          6           0        0.000000   -2.423096   -2.603778
     39          6           0       -1.184302   -2.807899   -1.834172
     40          6           0       -2.304502   -1.994026   -1.834172
     41          6           0       -3.488803   -0.363975   -0.588924
     42          6           0       -3.488803    0.363975    0.588924
     43          6           0       -3.036440    1.756205    0.588924
     44          6           0       -2.608562    2.345129   -0.588924
     45          6           0       -1.424260    3.205575   -0.588924
     46          6           0       -0.692322    2.967753   -1.834172
     47          6           0        0.692322    2.967753   -1.834172
     48          6           0        1.424260    1.960326   -2.603778
     49          6           0        2.304502   -0.748778   -2.603778
     50          6           0        3.036440    0.258649   -1.834172
     51          6           0        2.608562    1.575523   -1.834172
     52          6           0        2.608562    2.345129   -0.588924
     53          6           0        1.424260    3.205575   -0.588924
     54          6           0        0.731939    3.430524    0.588924
     55          6           0       -0.731939    3.430524    0.588924
     56          6           0       -1.184302    2.807899    1.834172
     57          6           0       -2.304502    1.994026    1.834172
     58          6           0       -3.036440   -1.756205   -0.588924
     59          6           0       -3.036440   -0.258649    1.834172
     60          6           0       -0.731939    1.007427   -3.331728
 ---------------------------------------------------------------------
 Rotational constants (GHZ):      0.0832241      0.0832241      0.0832241
 Standard basis: 6-31+G(d) (6D, 7F)
 There are   294 symmetry adapted cartesian basis functions of AG  symmetry.
 There are   276 symmetry adapted cartesian basis functions of BG  symmetry.
 There are   276 symmetry adapted cartesian basis functions of AU  symmetry.
 There are   294 symmetry adapted cartesian basis functions of BU  symmetry.
 There are   294 symmetry adapted basis functions of AG  symmetry.
 There are   276 symmetry adapted basis functions of BG  symmetry.
 There are   276 symmetry adapted basis functions of AU  symmetry.
 There are   294 symmetry adapted basis functions of BU  symmetry.
  1140 basis functions,  1920 primitive gaussians,  1140 cartesian basis functions
   180 alpha electrons      180 beta electrons
       nuclear repulsion energy      8310.5142797284 Hartrees.
 NAtoms=   60 NActive=   60 NUniq=    1 SFac= 4.00D+00 NAtFMM=   60 NAOKFM=T Big=F
 Integral buffers will be    131072 words long.
 Raffenetti 2 integral format.
 Two-electron integral symmetry is turned on.
 One-electron integrals computed using PRISM.
 NBasis=  1140 RedAO= T EigKep=  1.10D-06  NBF=   294   276   276   294
 NBsUse=  1082 1.00D-06 EigRej=  3.20D-07 NBFU=   282   260   260   280
 ExpMin= 4.38D-02 ExpMax= 3.05D+03 ExpMxC= 4.57D+02 IAcc=2 IRadAn=         4 AccDes= 0.00D+00
 Harris functional with IExCor= 1009 and IRadAn=       4 diagonalized for initial guess.
 HarFok:  IExCor= 1009 AccDes= 0.00D+00 IRadAn=         4 IDoV= 1 UseB2=F ITyADJ=14
 ICtDFT=  3500011 ScaDFX=  1.000000  1.000000  1.000000  1.000000
 FoFCou: FMM=F IPFlag=           0 FMFlag=      100000 FMFlg1=        2000
         NFxFlg=           0 DoJE=T BraDBF=F KetDBF=T FulRan=T
         wScrn=  0.000000 ICntrl=     500 IOpCl=  0 I1Cent=   200000004 NGrid=           0
         NMat0=    1 NMatS0=      1 NMatT0=    0 NMatD0=    1 NMtDS0=    0 NMtDT0=    0
 Petite list used in FoFCou.
 Initial guess orbital symmetries:
       Occupied  (AG) (T1U) (T1U) (T1U) (HG) (HG) (HG) (HG) (HG)
                 (GU) (GU) (GU) (GU) (T2U) (T2U) (T2U) (GG) (GG)
                 (GG) (GG) (HG) (HG) (HG) (HG) (HG) (HU) (HU) (HU)
                 (HU) (HU) (T1U) (T1U) (T1U) (T1G) (T1G) (T1G)
                 (HG) (HG) (HG) (HG) (HG) (T2U) (T2U) (T2U) (HU)
                 (HU) (HU) (HU) (HU) (GG) (GG) (GG) (GG) (GU) (GU)
                 (GU) (GU) (T2G) (T2G) (T2G) (AG) (T1U) (T1U) (T1U)
                 (HG) (HG) (HG) (HG) (HG) (T2U) (T2U) (T2U) (GU)
                 (GU) (GU) (GU) (HG) (HG) (HG) (HG) (HG) (GG) (GG)
                 (GG) (GG) (HU) (HU) (HU) (HU) (HU) (T1U) (T1U)
                 (T1U) (T2U) (T2U) (T2U) (HG) (HG) (HG) (HG) (HG)
                 (T1G) (T1G) (T1G) (AG) (GG) (GG) (GG) (GG) (HU)
                 (HU) (HU) (HU) (HU) (T1U) (T1U) (T1U) (T2U) (T2U)
                 (T2U) (GU) (GU) (GU) (GU) (HG) (HG) (HG) (HG)
                 (HG) (AG) (GG) (GG) (GG) (GG) (T1U) (T1U) (T1U)
                 (T2G) (T2G) (T2G) (GU) (GU) (GU) (GU) (HG) (HG)
                 (HG) (HG) (HG) (HG) (HG) (HG) (HG) (HG) (HU) (HU)
                 (HU) (HU) (HU) (T2U) (T2U) (T2U) (GU) (GU) (GU)
                 (GU) (HG) (HG) (HG) (HG) (HG) (GG) (GG) (GG) (GG)
                 (HU) (HU) (HU) (HU) (HU)
       Virtual   (T1U) (T1U) (T1U) (T1G) (T1G) (T1G) (T2U) (T2U)
                 (T2U) (HG) (HG) (HG) (HG) (HG) (HU) (HU) (HU)
                 (HU) (HU) (GG) (GG) (GG) (GG) (GU) (GU) (GU) (GU)
                 (T2G) (T2G) (T2G) (AG) (T1U) (T1U) (T1U) (T1U)
                 (T1U) (T1U) (HG) (HG) (HG) (HG) (HG) (HG) (HG)
                 (HG) (HG) (HG) (T1G) (T1G) (T1G) (GU) (GU) (GU)
                 (GU) (AG) (T2U) (T2U) (T2U) (T2U) (T2U) (T2U)
                 (GG) (GG) (GG) (GG) (GU) (GU) (GU) (GU) (HG) (HG)
                 (HG) (HG) (HG) (T1U) (T1U) (T1U) (HG) (HG) (HG)
                 (HG) (HG) (HU) (HU) (HU) (HU) (HU) (GG) (GG) (GG)
                 (GG) (T2U) (T2U) (T2U) (T1U) (T1U) (T1U) (AG)
                 (HU) (HU) (HU) (HU) (HU) (T1G) (T1G) (T1G) (HG)
                 (HG) (HG) (HG) (HG) (T1U) (T1U) (T1U) (GG) (GG)
                 (GG) (GG) (T2U) (T2U) (T2U) (?A) (?A) (?A) (?A)
                 (?A) (T2G) (T2G) (T2G) (?A) (?A) (?A) (?A) (HG)
                 (HG) (HG) (HG) (HG) (T1U) (T1U) (T1U) (T2U) (T2U)
                 (T2U) (HU) (HU) (HU) (HU) (HU) (GG) (GG) (GG)
                 (GG) (GU) (GU) (GU) (GU) (?B) (?B) (?B) (?B) (?B)
                 (T2U) (T2U) (T2U) (HG) (HG) (HG) (HG) (HG) (GG)
                 (GG) (GG) (GG) (?B) (?B) (?B) (?B) (?B) (?B) (?B)
                 (?B) (?A) (?A) (?A) (HU) (HU) (HU) (HU) (HU) (?A)
                 (?A) (?A) (T1G) (T1G) (T1G) (?B) (?B) (?B) (?B)
                 (?B) (?A) (?A) (?A) (?A) (HU) (HU) (HU) (HU) (HU)
                 (GG) (GG) (GG) (GG) (?A) (?A) (?A) (?A) (?A) (?A)
                 (?A) (?A) (?A) (?A) (?C) (?C) (?C) (?A) (?A) (?A)
                 (?A) (?C) (?C) (?C) (?C) (?B) (?B) (?B) (?B) (?B)
                 (?B) (?B) (?B) (?A) (?A) (?A) (?A) (?A) (?B) (?B)
                 (?B) (?B) (?B) (?B) (?B) (?B) (?B) (?B) (?B) (?B)
                 (?B) (?B) (?B) (?B) (?B) (?B) (?B) (?B) (HU) (HU)
                 (HU) (HU) (HU) (?A) (?A) (?A) (?A) (GG) (GG) (GG)
                 (GG) (HU) (HU) (HU) (HU) (HU) (AG) (?A) (?A) (?A)
                 (?A) (?A) (T1G) (T1G) (T1G) (AU) (GU) (GU) (GU)
                 (GU) (HG) (HG) (HG) (HG) (HG) (T1U) (T1U) (T1U)
                 (GU) (GU) (GU) (GU) (T2G) (T2G) (T2G) (T2U) (T2U)
                 (T2U) (T1U) (T1U) (T1U) (GG) (GG) (GG) (GG) (AG)
                 (T2U) (T2U) (T2U) (HG) (HG) (HG) (HG) (HG) (GU)
                 (GU) (GU) (GU) (?B) (?B) (?B) (?B) (?B) (?B) (?B)
                 (?B) (?D) (?D) (?D) (?D) (GG) (GG) (GG) (GG) (AG)
                 (?D) (?D) (?D) (HG) (HG) (HG) (HG) (HG) (?D) (?D)
                 (?D) (?D) (?D) (?D) (?D) (?D) (?D) (GG) (GG) (GG)
                 (GG) (HG) (HG) (HG) (HG) (HG) (?D) (?D) (?D) (?D)
                 (?D) (?D) (HG) (HG) (HG) (HG) (HG) (?D) (?D) (?D)
                 (?D) (?D) (T1U) (T1U) (T1U) (?D) (?D) (?D) (?D)
                 (?D) (?D) (?E) (?E) (?E) (?E) (?E) (?E) (?E) (?E)
                 (?E) (?E) (?E) (?E) (HU) (HU) (HU) (HU) (HU) (AG)
                 (?F) (?F) (?F) (?F) (?F) (?F) (?F) (?F) (?F) (?F)
                 (?F) (?F) (?F) (?F) (?F) (?F) (?F) (?F) (?F) (?F)
                 (?F) (?F) (?F) (?F) (?F) (?F) (?F) (?F) (?F) (?F)
                 (?F) (?F) (?F) (?F) (?F) (GG) (GG) (GG) (GG) (?F)
                 (?F) (?F) (?F) (?F) (?F) (?F) (?F) (?F) (?F) (?F)
                 (?F) (?F) (?F) (?F) (?F) (?F) (?F) (GU) (GU) (GU)
                 (GU) (?F) (?F) (?F) (?F) (?F) (?F) (?F) (?F) (?F)
                 (?F) (?F) (?F) (?F) (?F) (HU) (HU) (HU) (HU) (HU)
                 (T2U) (T2U) (T2U) (HU) (HU) (HU) (HU) (HU) (HG)
                 (HG) (HG) (HG) (HG) (T1G) (T1G) (T1G) (T2G) (T2G)
                 (T2G) (T1U) (T1U) (T1U) (HG) (HG) (HG) (HG) (HG)
                 (GG) (GG) (GG) (GG) (T2U) (T2U) (T2U) (T1G) (T1G)
                 (T1G) (AG) (GU) (GU) (GU) (GU) (HU) (HU) (HU)
                 (HU) (HU) (AU) (T2G) (T2G) (T2G) (T1U) (T1U) (T1U)
                 (?F) (?F) (?F) (?F) (?F) (?F) (?F) (GG) (GG) (GG)
                 (GG) (GG) (GG) (GG) (GG) (HG) (HG) (HG) (HG) (HG)
                 (AG) (HU) (HU) (HU) (HU) (HU) (HG) (HG) (HG) (HG)
                 (HG) (T1U) (T1U) (T1U) (GU) (GU) (GU) (GU) (T2U)
                 (T2U) (T2U) (HG) (HG) (HG) (HG) (HG) (HG) (HG)
                 (HG) (HG) (HG) (GU) (GU) (GU) (GU) (T1U) (T1U)
                 (T1U) (HU) (HU) (HU) (HU) (HU) (?F) (?F) (?F)
                 (?F) (?F) (?F) (?F) (?F) (T1U) (T1U) (T1U) (T1G)
                 (T1G) (T1G) (?F) (?F) (?F) (GG) (GG) (GG) (GG)
                 (?F) (?F) (?F) (?F) (HG) (HG) (HG) (HG) (HG) (GG)
                 (GG) (GG) (GG) (HU) (HU) (HU) (HU) (HU) (T2U)
                 (T2U) (T2U) (T1G) (T1G) (T1G) (HU) (HU) (HU) (HU)
                 (HU) (HG) (HG) (HG) (HG) (HG) (T1U) (T1U) (T1U)
                 (HG) (HG) (HG) (HG) (HG) (GU) (GU) (GU) (GU) (?F)
                 (?F) (?F) (?F) (?F) (?F) (?F) (HU) (HU) (HU) (HU)
                 (HU) (HU) (HU) (HU) (HU) (HU) (T2U) (T2U) (T2U)
                 (?F) (?F) (?F) (?F) (?F) (?F) (?F) (GU) (GU) (GU)
                 (GU) (?F) (?F) (?F) (?F) (?F) (T1U) (T1U) (T1U)
                 (T2G) (T2G) (T2G) (T2U) (T2U) (T2U) (HU) (HU)
                 (HU) (HU) (HU) (HG) (HG) (HG) (HG) (HG) (T1G)
                 (T1G) (T1G) (HG) (HG) (HG) (HG) (HG) (HU) (HU)
                 (HU) (HU) (HU) (T1U) (T1U) (T1U) (GU) (GU) (GU)
                 (GU) (GG) (GG) (GG) (GG) (T1G) (T1G) (T1G) (HU)
                 (HU) (HU) (HU) (HU) (T2U) (T2U) (T2U) (HG) (HG)
                 (HG) (HG) (HG) (?F) (?F) (?F) (?F) (?F) (?F) (?F)
                 (T1G) (T1G) (T1G) (HU) (HU) (HU) (HU) (HU) (GU)
                 (GU) (GU) (GU) (AU) (HU) (HU) (HU) (HU) (HU) (GG)
                 (GG) (GG) (GG) (T2G) (T2G) (T2G) (GG) (GG) (GG)
                 (GG) (GU) (GU) (GU) (GU) (HU) (HU) (HU) (HU) (HU)
                 (T2G) (T2G) (T2G) (GU) (GU) (GU) (GU) (T1G) (T1G)
                 (T1G) (AU) (T2G) (T2G) (T2G) (AG) (T1U) (T1U)
                 (T1U) (HG) (HG) (HG) (HG) (HG) (?F) (?F) (?F)
                 (?F) (?F) (?F) (?F) (HG) (HG) (HG) (HG) (HG) (T2U)
                 (T2U) (T2U) (GG) (GG) (GG) (GG) (HU) (HU) (HU)
                 (HU) (HU) (T2U) (T2U) (T2U) (T1G) (T1G) (T1G)
                 (HG) (HG) (HG) (HG) (HG) (GG) (GG) (GG) (GG) (HU)
                 (HU) (HU) (HU) (HU) (GU) (GU) (GU) (GU) (T2G)
                 (T2G) (T2G)
 The electronic state of the initial guess is 1-AG.
 Requested convergence on RMS density matrix=1.00D-08 within 128 cycles.
 Requested convergence on MAX density matrix=1.00D-06.
 Requested convergence on             energy=1.00D-06.
 No special actions if energy rises.
 Density matrix breaks symmetry, PCut= 1.00D-04
 Density has only Abelian symmetry.
 Density matrix breaks symmetry, PCut= 1.00D-04
 Density has only Abelian symmetry.
 Density matrix breaks symmetry, PCut= 1.00D-04
 Density has only Abelian symmetry.
 Density matrix breaks symmetry, PCut= 1.00D-04
 Density has only Abelian symmetry.
 Density matrix breaks symmetry, PCut= 1.00D-04
 Density has only Abelian symmetry.
 Density matrix breaks symmetry, PCut= 1.00D-04
 Density has only Abelian symmetry.
 Density matrix breaks symmetry, PCut= 1.00D-04
 Density has only Abelian symmetry.
 Density matrix breaks symmetry, PCut= 1.00D-04
 Density has only Abelian symmetry.
 Density matrix breaks symmetry, PCut= 1.00D-04
 Density has only Abelian symmetry.
 Density matrix breaks symmetry, PCut= 1.00D-04
 Density has only Abelian symmetry.
 Density matrix breaks symmetry, PCut= 1.00D-04
 Density has only Abelian symmetry.
 Density matrix breaks symmetry, PCut= 1.00D-04
 Density has only Abelian symmetry.
 Density matrix breaks symmetry, PCut= 1.00D-04
 Density has only Abelian symmetry.
 SCF Done:  E(RM062X) =  -2285.48740965     A.U. after   12 cycles
            NFock= 12  Conv=0.15D-08     -V/T= 2.0088

 **********************************************************************

            Population analysis using the SCF density.

 **********************************************************************

 Orbital symmetries:
       Occupied  (?A) (?B) (?B) (?B) (?A) (?A) (?A) (?A) (?A) (?B)
                 (?B) (?B) (?B) (?B) (?B) (?B) (?A) (?A) (?A) (?A)
                 (?A) (?A) (?A) (?A) (?A) (?B) (?B) (?B) (?B) (?B)
                 (?B) (?B) (?B) (?C) (?C) (?C) (?C) (?C) (?C) (?C)
                 (?C) (?B) (?B) (?B) (?B) (?B) (?B) (?B) (?B) (?C)
                 (?C) (?C) (?C) (?B) (?B) (?B) (?B) (?C) (?C) (?C)
                 (AG) (T1U) (T1U) (T1U) (HG) (HG) (HG) (HG) (HG)
                 (T2U) (T2U) (T2U) (GU) (GU) (GU) (GU) (HG) (HG)
                 (HG) (HG) (HG) (GG) (GG) (GG) (GG) (HU) (HU) (HU)
                 (HU) (HU) (T1U) (T1U) (T1U) (T2U) (T2U) (T2U)
                 (HG) (HG) (HG) (HG) (HG) (T1G) (T1G) (T1G) (AG)
                 (GG) (GG) (GG) (GG) (HU) (HU) (HU) (HU) (HU) (T1U)
                 (T1U) (T1U) (T2U) (T2U) (T2U) (AG) (T1U) (T1U)
                 (T1U) (GU) (GU) (GU) (GU) (HG) (HG) (HG) (HG)
                 (HG) (GG) (GG) (GG) (GG) (HG) (HG) (HG) (HG) (HG)
                 (T2G) (T2G) (T2G) (GU) (GU) (GU) (GU) (T2U) (T2U)
                 (T2U) (HG) (HG) (HG) (HG) (HG) (GU) (GU) (GU)
                 (GU) (HU) (HU) (HU) (HU) (HU) (GG) (GG) (GG) (GG)
                 (HG) (HG) (HG) (HG) (HG) (HU) (HU) (HU) (HU) (HU)
       Virtual   (T1U) (T1U) (T1U) (T1G) (T1G) (T1G) (T2U) (T2U)
                 (T2U) (HG) (HG) (HG) (HG) (HG) (AG) (T1U) (T1U)
                 (T1U) (?D) (?D) (?D) (?D) (?D) (?D) (HU) (HU)
                 (HU) (HU) (HU) (?E) (?E) (?E) (?E) (?E) (?E) (?E)
                 (?F) (?F) (?F) (?F) (?F) (?F) (?F) (?F) (?F) (?F)
                 (?F) (?F) (?F) (?F) (?F) (?F) (?F) (?F) (?F) (?F)
                 (?F) (?F) (?F) (?F) (?F) (?F) (?F) (?F) (T2G)
                 (T2G) (T2G) (?F) (?F) (?F) (?F) (?F) (?F) (?F)
                 (?F) (?F) (?F) (?F) (?F) (?F) (?F) (?F) (AG) (?F)
                 (?F) (?F) (HG) (HG) (HG) (HG) (HG) (?F) (?F) (?F)
                 (?F) (?F) (?F) (?F) (?F) (?F) (?F) (?F) (?F) (?F)
                 (?F) (?F) (T1G) (T1G) (T1G) (T2U) (T2U) (T2U)
                 (GG) (GG) (GG) (GG) (?F) (?F) (?F) (?F) (?F) (?F)
                 (?F) (?F) (?F) (?F) (?F) (?F) (?F) (?F) (?F) (?F)
                 (?F) (?F) (?F) (?F) (?F) (?F) (?F) (?F) (?F) (?F)
                 (?F) (?F) (?F) (?F) (?F) (?F) (?F) (?F) (?F) (?F)
                 (?F) (?F) (HG) (HG) (HG) (HG) (HG) (?F) (?F) (?F)
                 (?F) (?F) (GG) (GG) (GG) (GG) (?F) (?F) (?F) (?F)
                 (?F) (?F) (?F) (?F) (?F) (?F) (?F) (?F) (?F) (?F)
                 (?F) (?F) (?F) (?F) (?F) (?F) (?F) (?F) (HU) (HU)
                 (HU) (HU) (HU) (T2U) (T2U) (T2U) (?F) (?F) (?F)
                 (T1G) (T1G) (T1G) (?F) (?F) (?F) (?F) (?F) (?F)
                 (?F) (?F) (?F) (?F) (?F) (?F) (?F) (?F) (?F) (?F)
[...]
 Alpha virt. eigenvalues --    0.28175   0.28177   0.28182   0.28187   0.28990
 Alpha virt. eigenvalues --    0.28991   0.28995   0.29000   0.29003   0.29972
 Alpha virt. eigenvalues --    0.29976   0.29979   0.29983   0.29991   0.30095
 Alpha virt. eigenvalues --    0.30096   0.30099   0.30100   0.30169   0.30171
 Alpha virt. eigenvalues --    0.30174   0.30177   0.30398   0.30400   0.30406
 Alpha virt. eigenvalues --    0.30685   0.30688   0.30688   0.30690   0.30691
 Alpha virt. eigenvalues --    0.30831   0.30841   0.30856   0.30867   0.30930
 Alpha virt. eigenvalues --    0.30943   0.30949   0.31165   0.31175   0.31198
 Alpha virt. eigenvalues --    0.32652   0.32664   0.32668   0.32793   0.32797
 Alpha virt. eigenvalues --    0.32801   0.32805   0.32808   0.34287   0.34295
 Alpha virt. eigenvalues --    0.34307   0.34501   0.34502   0.34504   0.35105
 Alpha virt. eigenvalues --    0.35128   0.35128   0.35140   0.35144   0.35326
 Alpha virt. eigenvalues --    0.35331   0.35343   0.35344   0.35378   0.35401
 Alpha virt. eigenvalues --    0.35408   0.35434   0.35438   0.35528   0.35533
 Alpha virt. eigenvalues --    0.35571   0.36047   0.36054   0.36055   0.36063
 Alpha virt. eigenvalues --    0.36064   0.37363   0.37366   0.37371   0.38011
 Alpha virt. eigenvalues --    0.38013   0.38016   0.38018   0.38021   0.38160
 Alpha virt. eigenvalues --    0.38165   0.38170   0.38171   0.39250   0.39258
 Alpha virt. eigenvalues --    0.39259   0.39264   0.40086   0.40087   0.40106
 Alpha virt. eigenvalues --    0.40112   0.40122   0.40833   0.40837   0.40841
 Alpha virt. eigenvalues --    0.41213   0.41215   0.41225   0.43472   0.43483
 Alpha virt. eigenvalues --    0.43485   0.43490   0.43496   0.49049   0.49055
 Alpha virt. eigenvalues --    0.49077   0.51905   0.51915   0.51922   0.51929
 Alpha virt. eigenvalues --    0.51931   0.52643   0.52645   0.52651   0.52661
 Alpha virt. eigenvalues --    0.54334   0.54337   0.54341   0.54343   0.55972
 Alpha virt. eigenvalues --    0.55991   0.55996   0.58078   0.58080   0.58082
 Alpha virt. eigenvalues --    0.58089   0.58437   0.60168   0.60178   0.60183
 Alpha virt. eigenvalues --    0.60188   0.60192   0.62285   0.62297   0.62304
 Alpha virt. eigenvalues --    0.62305   0.62312   0.64271   0.64276   0.64279
 Alpha virt. eigenvalues --    0.64283   0.64286   0.65856   0.65857   0.65865
 Alpha virt. eigenvalues --    0.68466   0.68474   0.68483   0.68488   0.69334
 Alpha virt. eigenvalues --    0.70449   0.70457   0.70465   0.72188   0.72193
 Alpha virt. eigenvalues --    0.72210   0.72548   0.72554   0.72556   0.72711
 Alpha virt. eigenvalues --    0.72716   0.72724   0.72731   0.75084   0.75088
 Alpha virt. eigenvalues --    0.75094   0.75096   0.75471   0.75482   0.75484
 Alpha virt. eigenvalues --    0.75855   0.77064   0.77077   0.77086   0.78519
 Alpha virt. eigenvalues --    0.78521   0.78527   0.78534   0.78534   0.79673
 Alpha virt. eigenvalues --    0.79675   0.79678   0.82687   0.82693   0.82695
 Alpha virt. eigenvalues --    0.82697   0.84921   0.84930   0.84932   0.84935
 Alpha virt. eigenvalues --    0.85067   0.85079   0.85089   0.85095   0.85102
 Alpha virt. eigenvalues --    0.85120   0.86511   0.86514   0.86519   0.86523
 Alpha virt. eigenvalues --    0.87763   0.87769   0.87771   0.88512   0.88515
 Alpha virt. eigenvalues --    0.88518   0.88522   0.89281   0.89290   0.89296
 Alpha virt. eigenvalues --    0.89303   0.89305   0.89415   0.89419   0.89425
 Alpha virt. eigenvalues --    0.89427   0.89428   0.91092   0.91095   0.91096
 Alpha virt. eigenvalues --    0.91101   0.91102   0.91258   0.91261   0.91262
 Alpha virt. eigenvalues --    0.91270   0.92194   0.92210   0.92219   0.93830
 Alpha virt. eigenvalues --    0.93832   0.93836   0.93837   0.93843   0.93932
 Alpha virt. eigenvalues --    0.93940   0.93947   0.95564   0.95567   0.95577
 Alpha virt. eigenvalues --    0.95579   0.95603   0.97427   0.97428   0.97438
 Alpha virt. eigenvalues --    0.99038   0.99056   0.99057   0.99059   0.99060
 Alpha virt. eigenvalues --    0.99064   0.99083   0.99459   0.99474   0.99488
 Alpha virt. eigenvalues --    0.99795   0.99797   0.99800   1.01626   1.01630
 Alpha virt. eigenvalues --    1.01631   1.01642   1.01644   1.03685   1.03690
 Alpha virt. eigenvalues --    1.03692   1.03693   1.03695   1.06650   1.06673
 Alpha virt. eigenvalues --    1.06747   1.08323   1.08324   1.08328   1.08654
 Alpha virt. eigenvalues --    1.08659   1.08666   1.11093   1.11099   1.11103
 Alpha virt. eigenvalues --    1.11106   1.11110   1.11386   1.12215   1.12221
 Alpha virt. eigenvalues --    1.12226   1.12231   1.13566   1.13567   1.13569
 Alpha virt. eigenvalues --    1.13569   1.13569   1.16387   1.16392   1.16393
 Alpha virt. eigenvalues --    1.17303   1.17311   1.17313   1.17324   1.17331
 Alpha virt. eigenvalues --    1.17334   1.17347   1.17361   1.17361   1.19378
 Alpha virt. eigenvalues --    1.19383   1.19384   1.19394   1.21187   1.21195
 Alpha virt. eigenvalues --    1.21209   1.21218   1.21232   1.21370   1.21378
 Alpha virt. eigenvalues --    1.21385   1.22178   1.22197   1.22198   1.22218
 Alpha virt. eigenvalues --    1.22278   1.22279   1.22299   1.22411   1.22412
 Alpha virt. eigenvalues --    1.22415   1.25485   1.25491   1.25494   1.25515
 Alpha virt. eigenvalues --    1.25516   1.26788   1.26802   1.26809   1.26822
 Alpha virt. eigenvalues --    1.27096   1.27099   1.27100   1.27104   1.27886
 Alpha virt. eigenvalues --    1.27893   1.27894   1.27896   1.27903   1.28329
 Alpha virt. eigenvalues --    1.28345   1.28362   1.28380   1.28383   1.28392
 Alpha virt. eigenvalues --    1.28402   1.28413   1.35159   1.35161   1.35162
 Alpha virt. eigenvalues --    1.35175   1.35181   1.39178   1.39186   1.39201
 Alpha virt. eigenvalues --    1.39211   1.39216   1.40109   1.40109   1.40111
 Alpha virt. eigenvalues --    1.40147   1.40155   1.40158   1.47089   1.47110
 Alpha virt. eigenvalues --    1.47122   1.47948   1.47951   1.47959   1.47967
 Alpha virt. eigenvalues --    1.48748   1.48757   1.48762   1.48770   1.48785
 Alpha virt. eigenvalues --    1.53987   1.54179   1.54182   1.54213   1.54218
 Alpha virt. eigenvalues --    1.54238   1.54245   1.55167   1.55314   1.55320
 Alpha virt. eigenvalues --    1.55327   1.55328   1.58596   1.58599   1.58608
 Alpha virt. eigenvalues --    1.58621   1.58636   1.64326   1.64332   1.64350
 Alpha virt. eigenvalues --    1.68080   1.68082   1.68085   1.69914   1.69940
 Alpha virt. eigenvalues --    1.69945   1.69962   1.73438   1.73445   1.73453
 Alpha virt. eigenvalues --    1.74536   1.74548   1.74565   1.74568   1.75238
 Alpha virt. eigenvalues --    1.75240   1.75261   1.75261   1.75272   1.76855
 Alpha virt. eigenvalues --    1.76856   1.76858   1.76869   1.77615   1.79666
 Alpha virt. eigenvalues --    1.79678   1.79683   1.79693   1.79694   1.80320
 Alpha virt. eigenvalues --    1.80326   1.80334   1.80336   1.80340   1.81271
 Alpha virt. eigenvalues --    1.81290   1.81291   1.84764   1.84770   1.84776
 Alpha virt. eigenvalues --    1.85018   1.85022   1.85026   1.85031   1.86593
 Alpha virt. eigenvalues --    1.86606   1.86620   1.86627   1.86635   1.93069
 Alpha virt. eigenvalues --    1.93080   1.93084   1.93120   1.93239   1.93244
 Alpha virt. eigenvalues --    1.93252   1.93258   1.93271   1.97840   1.97848
 Alpha virt. eigenvalues --    1.97872   2.01101   2.01125   2.01133   2.01525
 Alpha virt. eigenvalues --    2.01551   2.01556   2.01652   2.01654   2.01667
 Alpha virt. eigenvalues --    2.01676   2.01692   2.02222   2.02225   2.02244
 Alpha virt. eigenvalues --    2.02245   2.02267   2.03319   2.03324   2.03339
 Alpha virt. eigenvalues --    2.03696   2.03732   2.03757   2.06196   2.06201
 Alpha virt. eigenvalues --    2.06206   2.06215   2.08920   2.08921   2.08935
 Alpha virt. eigenvalues --    2.08940   2.11810   2.11821   2.11845   2.11850
 Alpha virt. eigenvalues --    2.12201   2.12213   2.12218   2.12234   2.12247
 Alpha virt. eigenvalues --    2.14141   2.14155   2.14171   2.15841   2.15842
 Alpha virt. eigenvalues --    2.15859   2.16468   2.16479   2.16480   2.16491
 Alpha virt. eigenvalues --    2.16498   2.20593   2.20608   2.20615   2.20629
 Alpha virt. eigenvalues --    2.20636   2.24203   2.24207   2.24209   2.24217
 Alpha virt. eigenvalues --    2.24222   2.26181   2.26196   2.26205   2.29993
 Alpha virt. eigenvalues --    2.30010   2.30015   2.30029   2.30046   2.31110
 Alpha virt. eigenvalues --    2.31118   2.31126   2.31127   2.31898   2.31899
 Alpha virt. eigenvalues --    2.31914   2.31920   2.32501   2.32508   2.32516
 Alpha virt. eigenvalues --    2.32525   2.32539   2.34576   2.34584   2.34612
 Alpha virt. eigenvalues --    2.39837   2.39839   2.39851   2.39854   2.39882
 Alpha virt. eigenvalues --    2.44193   2.44231   2.44233   2.47579   2.47596
 Alpha virt. eigenvalues --    2.47602   2.47614   2.48181   2.48186   2.48212
 Alpha virt. eigenvalues --    2.49567   2.49570   2.49578   2.49581   2.50615
 Alpha virt. eigenvalues --    2.50618   2.50631   2.50649   2.50654   2.52011
 Alpha virt. eigenvalues --    2.52031   2.52039   2.56507   2.56532   2.56539
 Alpha virt. eigenvalues --    2.58362   2.58368   2.58381   2.60332   2.60336
 Alpha virt. eigenvalues --    2.60340   2.60349   2.60353   2.61745   2.61753
 Alpha virt. eigenvalues --    2.61760   2.61762   2.61768   2.62244   2.62245
 Alpha virt. eigenvalues --    2.62275   2.65831   2.65832   2.65845   2.65849
 Alpha virt. eigenvalues --    2.65854   2.66725   2.66741   2.66749   2.67288
 Alpha virt. eigenvalues --    2.67300   2.67316   2.67317   2.67335   2.71644
 Alpha virt. eigenvalues --    2.71650   2.71661   2.71665   2.72044   2.72060
 Alpha virt. eigenvalues --    2.72063   2.72075   2.75293   2.75299   2.75317
 Alpha virt. eigenvalues --    2.81003   2.81004   2.81010   2.81025   2.81039
 Alpha virt. eigenvalues --    2.84633   2.84641   2.84663   2.84695   2.84700
 Alpha virt. eigenvalues --    2.84707   2.85102   2.85119   2.85131   2.85147
 Alpha virt. eigenvalues --    2.85313   2.85337   2.85344   2.85360   2.85365
 Alpha virt. eigenvalues --    2.87691   2.87701   2.87706   2.89765   2.89771
 Alpha virt. eigenvalues --    2.89783   2.89784   2.89814   2.93292   2.93296
 Alpha virt. eigenvalues --    2.93299   2.93306   2.94229   2.96886   2.96906
 Alpha virt. eigenvalues --    2.96911   2.96913   2.96929   2.99395   2.99407
 Alpha virt. eigenvalues --    2.99423   2.99434   3.00796   3.00818   3.00824
 Alpha virt. eigenvalues --    3.11134   3.11140   3.11163   3.11171   3.18769
 Alpha virt. eigenvalues --    3.18778   3.18795   3.18799   3.25419   3.25425
 Alpha virt. eigenvalues --    3.25449   3.25502   3.25518   3.25530   3.25552
 Alpha virt. eigenvalues --    3.25555   3.42480   3.42489   3.42499   3.42515
 Alpha virt. eigenvalues --    3.46271   3.46318   3.46326   3.59472   3.59478
 Alpha virt. eigenvalues --    3.59486   3.60722   4.19658   4.29135   4.29177
 Alpha virt. eigenvalues --    4.29177   4.36626   4.36632   4.36641   4.36648
 Alpha virt. eigenvalues --    4.36657   4.42303   4.42308   4.42313   4.42318
 Alpha virt. eigenvalues --    4.42591   4.42595   4.42597   4.44184   4.44204
 Alpha virt. eigenvalues --    4.44220   4.44223   4.44226   4.44319   4.44320
 Alpha virt. eigenvalues --    4.44329   4.44333   4.44564   4.44568   4.44590
 Alpha virt. eigenvalues --    4.53099   4.53102   4.53106   4.53111   4.53119
 Alpha virt. eigenvalues --    4.54814   4.54821   4.54824   4.64074   4.64077
 Alpha virt. eigenvalues --    4.64098   4.71385   4.71390   4.71408   4.71412
 Alpha virt. eigenvalues --    4.71423   4.85710   4.85743   4.85747   4.85752
 Alpha virt. eigenvalues --    4.93924   4.93928   4.93942   4.93945   4.93976
 Alpha virt. eigenvalues --    5.20651   5.20666   5.20676   5.20681   5.35221
 Alpha virt. eigenvalues --    5.35237   5.35259
          Condensed to atoms (all electrons):
 Mulliken charges:
               1
     1  C   -0.001772
     2  C    0.004773
     3  C    0.002876
     4  C   -0.005784
     5  C    0.005168
     6  C    0.002117
     7  C   -0.005135
     8  C   -0.002356
     9  C    0.005979
    10  C    0.002757
    11  C    0.000722
    12  C   -0.003924
    13  C    0.003912
    14  C   -0.003417
    15  C   -0.002367
    16  C    0.003816
    17  C   -0.002032
    18  C    0.000989
    19  C   -0.002038
    20  C    0.001601
    21  C   -0.002162
    22  C    0.000341
    23  C    0.002614
    24  C    0.001743
    25  C   -0.002918
    26  C   -0.004496
    27  C   -0.005304
    28  C    0.006361
    29  C   -0.002613
    30  C   -0.005135
    31  C   -0.002038
    32  C    0.000989
    33  C   -0.002032
    34  C    0.002117
    35  C    0.004773
    36  C    0.005979
    37  C   -0.002356
    38  C    0.001601
    39  C   -0.002162
    40  C    0.000341
    41  C    0.001743
    42  C   -0.002918
    43  C   -0.004496
    44  C    0.003816
    45  C   -0.002367
    46  C    0.005168
    47  C   -0.005784
    48  C    0.002876
    49  C    0.002757
    50  C    0.000550
    51  C    0.000722
    52  C   -0.002613
    53  C   -0.003924
    54  C    0.003912
    55  C   -0.003417
    56  C    0.006361
    57  C   -0.005304
    58  C    0.002614
    59  C    0.000550
    60  C   -0.001772
 Sum of Mulliken charges =   0.00000
 Mulliken charges with hydrogens summed into heavy atoms:
               1
     1  C   -0.001772
     2  C    0.004773
     3  C    0.002876
     4  C   -0.005784
     5  C    0.005168
     6  C    0.002117
     7  C   -0.005135
     8  C   -0.002356
     9  C    0.005979
    10  C    0.002757
    11  C    0.000722
    12  C   -0.003924
    13  C    0.003912
    14  C   -0.003417
    15  C   -0.002367
    16  C    0.003816
    17  C   -0.002032
    18  C    0.000989
    19  C   -0.002038
    20  C    0.001601
    21  C   -0.002162
    22  C    0.000341
    23  C    0.002614
    24  C    0.001743
    25  C   -0.002918
    26  C   -0.004496
    27  C   -0.005304
    28  C    0.006361
    29  C   -0.002613
    30  C   -0.005135
    31  C   -0.002038
    32  C    0.000989
    33  C   -0.002032
    34  C    0.002117
    35  C    0.004773
    36  C    0.005979
    37  C   -0.002356
    38  C    0.001601
    39  C   -0.002162
    40  C    0.000341
    41  C    0.001743
    42  C   -0.002918
    43  C   -0.004496
    44  C    0.003816
    45  C   -0.002367
    46  C    0.005168
    47  C   -0.005784
    48  C    0.002876
    49  C    0.002757
    50  C    0.000550
    51  C    0.000722
    52  C   -0.002613
    53  C   -0.003924
    54  C    0.003912
    55  C   -0.003417
    56  C    0.006361
    57  C   -0.005304
    58  C    0.002614
    59  C    0.000550
    60  C   -0.001772
 Electronic spatial extent (au):  <R**2>=          16867.5303
 Charge=              0.0000 electrons
 Dipole moment (field-independent basis, Debye):
    X=              0.0000    Y=              0.0000    Z=              0.0000  Tot=              0.0000
 Quadrupole moment (field-independent basis, Debye-Ang):
   XX=           -336.1475   YY=           -336.1540   ZZ=           -336.1677
   XY=             -0.0001   XZ=              0.0028   YZ=              0.0019
 Traceless Quadrupole moment (field-independent basis, Debye-Ang):
   XX=              0.0088   YY=              0.0024   ZZ=             -0.0113
   XY=             -0.0001   XZ=              0.0028   YZ=              0.0019
 Octapole moment (field-independent basis, Debye-Ang**2):
  XXX=              0.0000  YYY=              0.0000  ZZZ=              0.0000  XYY=              0.0000
  XXY=              0.0000  XXZ=              0.0000  XZZ=              0.0000  YZZ=              0.0000
  YYZ=              0.0000  XYZ=              0.0000
 Hexadecapole moment (field-independent basis, Debye-Ang**3):
 XXXX=          -8845.8006 YYYY=          -8846.0886 ZZZZ=          -8849.6919 XXXY=              0.0103
 XXXZ=             -0.1092 YYYX=              0.0008 YYYZ=             -1.3560 ZZZX=             -0.1171
 ZZZY=             -1.3484 XXYY=          -2948.6945 XXZZ=          -2949.2153 YYZZ=          -2949.2327
 XXYZ=             -0.4262 YYXZ=             -0.0314 ZZXY=              0.0059
 N-N= 8.348228755084D+03 E-N=-2.198094176456D+04  KE= 2.266833107012D+03
 Symmetry AG   KE= 1.133164133389D+03
 Symmetry AU   KE= 1.133668973624D+03
 1|1|UNPC-HP01|FOpt|RM062X|6-31+G(d)|C60|TITUS.BEU|12-Jan-2020|0||# opt
  m062x/6-31+g(d) symm=loose||C60 opt||0,1|C,-1.1747221246,-0.382173158
 2,3.3192561456|C,-0.7259583563,0.9988982035,3.3191040875|C,-1.41962181
 23,1.9537434418,2.5885039598|C,-2.5936638308,1.5719139878,1.8249511153
 |C,-3.0231322015,0.2524339822,1.8253918695|C,-2.2976878487,-0.74680281
 72,2.5892455244|C,-0.000045788,-1.2357619289,3.3196106813|C,1.17455494
 45,-0.3821601362,3.3191035574|C,0.7258480143,0.9988880854,3.319075789|
 C,1.4195699244,1.9537029717,2.588472605|C,-0.6938667239,2.9530298037,1
 .8250659509|C,-2.5944831017,2.3361049462,0.5902015975|C,-3.0240169099,
 1.7461776383,-0.5903663609|C,-3.4716618113,0.3648202597,-0.5901490739|
 C,-3.4717002105,-0.364859261,0.5902554119|C,-3.0240080546,-1.746063243
 2,0.590448617|C,-2.297571623,-1.9812481872,1.8255381151|C,-1.174823036
 1,-2.7972563275,1.8258548982|C,-0.0000255031,-2.4165396395,2.589819246
 1|C,2.2976127495,-0.7467731114,2.5891030537|C,2.2975626919,-1.98127883
 72,1.8254828876|C,1.1747127988,-2.7972072517,1.8258648321|C,0.72604820
 64,-3.4148166715,0.5908030008|C,-0.726079344,-3.4148827669,0.590814027
 6|C,-1.4197478801,-3.1892590466,-0.5897795401|C,-2.5944326662,-2.33604
 0673,-0.5901411378|C,-2.5935759436,-1.5719275765,-1.8248600505|C,-3.02
 31278985,-0.2524038806,-1.8252678316|C,-1.4197925584,3.189132043,0.589
 8037578|C,0.000046295,1.2357620929,-3.3196078347|C,0.0000260101,2.4165
 398035,-2.5898163994|C,1.1748235431,2.7972564915,-1.8258520515|C,2.297
 57213,1.9812483512,-1.8255352684|C,2.2976883557,0.7468029812,-2.589242
 6778|C,0.7259588633,-0.9988980395,-3.3191012409|C,-0.7258475073,-0.998
 8879214,-3.3190729423|C,-1.1745544375,0.3821603002,-3.3191007107|C,-2.
 2976122425,0.7467732754,-2.589100207|C,-2.2975621849,1.9812790012,-1.8
 254800409|C,-1.1747122918,2.7972074157,-1.8258619854|C,0.726079851,3.4
 148829309,-0.5908111809|C,1.4197483871,3.1892592106,0.5897823868|C,2.5
 944331732,2.336040837,0.5901439844|C,3.0240085616,1.7460634072,-0.5904
 457704|C,3.4717007175,0.364859425,-0.5902525652|C,3.0231327085,-0.2524
 338182,-1.8253890228|C,2.5936643378,-1.5719138238,-1.8249482686|C,1.41
 96223193,-1.9537432778,-2.5885011132|C,-1.4195694174,-1.9537028077,-2.
 5884697583|C,-0.6937931257,-2.9530913286,-1.825034269|C,0.6938672309,-
 2.9530296397,-1.8250631043|C,1.4197930654,-3.189131879,-0.5898009111|C
 ,2.5944836087,-2.3361047822,-0.5901987508|C,3.0240174169,-1.7461774743
 ,0.5903692075|C,3.4716623183,-0.3648200957,0.5901519206|C,3.0231284055
 ,0.2524040446,1.8252706782|C,2.5935764506,1.5719277405,1.8248628972|C,
 -0.7260476994,3.4148168355,-0.5908001541|C,0.6937936327,2.9530914926,1
 .8250371157|C,1.1747226316,0.3821733222,-3.3192532989||Version=EM64W-G
 09RevE.01|State=1-AG|HF=-2285.4928866|RMSD=5.998e-009|RMSF=1.218e-004|
 Dipole=0.,0.,0.|Quadrupole=0.0065757,0.0017978,-0.0083735,-0.0000839,-
 0.0020977,-0.0014059|PG=CI [X(C60)]||@


 "I COULD HAVE DONE IT IN A MUCH MORE COMPLICATED WAY"
 SAID THE RED QUEEN, IMMENSELY PROUD.

                                      -- LEWIS CARROLL
 Job cpu time:       0 days  2 hours 14 minutes 14.0 seconds.
 File lengths (MBytes):  RWF=    771 Int=      0 D2E=      0 Chk=     86 Scr=      1
 Normal termination of Gaussian 09 at Sun Jan 12 22:40:25 2020.
